<?xml version="1.0" encoding="UTF-8"?>

<!-- generated on Wed Jun 23 15:52:19 2021 by Eclipse SUMO sumo Version 1.7.0
<configuration xmlns:xsi="http://www.w3.org/2001/XMLSchema-instance" xsi:noNamespaceSchemaLocation="http://sumo.dlr.de/xsd/sumoConfiguration.xsd">

    <input>
        <net-file value="meta.net.xml"/>
        <route-files value="routes/meta_stops-6003022196900579281.rou.xml"/>
        <additional-files value="meta_parking-areas.xml"/>
    </input>

    <output>
        <tripinfo-output value="trips/tripinfo-6003022196900579281.xml"/>
    </output>

    <traci_server>
        <remote-port value="52301"/>
    </traci_server>

</configuration>
-->

<tripinfos xmlns:xsi="http://www.w3.org/2001/XMLSchema-instance" xsi:noNamespaceSchemaLocation="http://sumo.dlr.de/xsd/tripinfo_file.xsd">
    <tripinfo id="left0A0-A0bottom0.0" depart="0.00" departLane="left0A0_0" departPos="5.10" departSpeed="0.00" departDelay="0.00" arrival="42.00" arrivalLane="A0bottom0_0" arrivalPos="239.60" arrivalSpeed="13.24" duration="42.00" routeLength="483.13" waitingTime="0.00" waitingCount="0" stopTime="0.00" timeLoss="6.78" rerouteNo="0" devices="tripinfo_left0A0-A0bottom0.0" vType="DEFAULT_VEHTYPE" speedFactor="1.02" vaporized=""/>
    <tripinfo id="top0A4-A4left4.0" depart="12.00" departLane="top0A4_0" departPos="5.10" departSpeed="0.00" departDelay="12.00" arrival="54.00" arrivalLane="A4left4_0" arrivalPos="239.60" arrivalSpeed="13.64" duration="42.00" routeLength="483.13" waitingTime="0.00" waitingCount="0" stopTime="0.00" timeLoss="6.25" rerouteNo="0" devices="tripinfo_top0A4-A4left4.0" vType="DEFAULT_VEHTYPE" speedFactor="1.00" vaporized=""/>
    <tripinfo id="left4A4-A4top0.0" depart="3.00" departLane="left4A4_0" departPos="5.10" departSpeed="0.00" departDelay="3.00" arrival="58.00" arrivalLane="A4top0_1" arrivalPos="239.60" arrivalSpeed="14.06" duration="55.00" routeLength="493.45" waitingTime="10.00" waitingCount="1" stopTime="0.00" timeLoss="19.33" rerouteNo="0" devices="tripinfo_left4A4-A4top0.0" vType="DEFAULT_VEHTYPE" speedFactor="1.03" vaporized=""/>
    <tripinfo id="left1A1-A0bottom0.0" depart="0.00" departLane="left1A1_0" departPos="5.10" departSpeed="0.00" departDelay="0.00" arrival="63.00" arrivalLane="A0bottom0_0" arrivalPos="239.60" arrivalSpeed="12.30" duration="63.00" routeLength="733.13" waitingTime="0.00" waitingCount="0" stopTime="0.00" timeLoss="8.26" rerouteNo="0" devices="tripinfo_left1A1-A0bottom0.0" vType="DEFAULT_VEHTYPE" speedFactor="0.98" vaporized=""/>
    <tripinfo id="bottom4E0-E0right0.0" depart="24.00" departLane="bottom4E0_0" departPos="5.10" departSpeed="0.00" departDelay="24.00" arrival="68.00" arrivalLane="E0right0_0" arrivalPos="239.60" arrivalSpeed="11.87" duration="44.00" routeLength="483.13" waitingTime="0.00" waitingCount="0" stopTime="0.00" timeLoss="6.31" rerouteNo="0" devices="tripinfo_bottom4E0-E0right0.0" vType="DEFAULT_VEHTYPE" speedFactor="0.94" vaporized=""/>
    <tripinfo id="left3A3-A4top0.0" depart="3.00" departLane="left3A3_0" departPos="5.10" departSpeed="0.00" departDelay="3.00" arrival="70.00" arrivalLane="A4top0_0" arrivalPos="239.60" arrivalSpeed="12.53" duration="67.00" routeLength="743.45" waitingTime="0.00" waitingCount="0" stopTime="0.00" timeLoss="7.88" rerouteNo="0" devices="tripinfo_left3A3-A4top0.0" vType="DEFAULT_VEHTYPE" speedFactor="0.92" vaporized=""/>
    <tripinfo id="left2A2-A0bottom0.0" depart="0.00" departLane="left2A2_0" departPos="5.10" departSpeed="0.00" departDelay="0.00" arrival="75.00" arrivalLane="A0bottom0_0" arrivalPos="239.60" arrivalSpeed="14.76" duration="75.00" routeLength="983.13" waitingTime="0.00" waitingCount="0" stopTime="0.00" timeLoss="9.83" rerouteNo="0" devices="tripinfo_left2A2-A0bottom0.0" vType="DEFAULT_VEHTYPE" speedFactor="1.10" vaporized=""/>
    <tripinfo id="top0A4-A3left3.0" depart="9.00" departLane="top0A4_0" departPos="5.10" departSpeed="0.00" departDelay="9.00" arrival="75.00" arrivalLane="A3left3_0" arrivalPos="239.60" arrivalSpeed="12.45" duration="66.00" routeLength="733.13" waitingTime="0.00" waitingCount="0" stopTime="0.00" timeLoss="6.82" rerouteNo="0" devices="tripinfo_top0A4-A3left3.0" vType="DEFAULT_VEHTYPE" speedFactor="0.91" vaporized=""/>
    <tripinfo id="bottom1B0-A0left0.0" depart="0.00" departLane="bottom1B0_0" departPos="5.10" departSpeed="0.00" departDelay="0.00" arrival="79.00" arrivalLane="A0left0_0" arrivalPos="239.60" arrivalSpeed="15.37" duration="79.00" routeLength="743.46" waitingTime="15.00" waitingCount="1" stopTime="0.00" timeLoss="30.19" rerouteNo="0" devices="tripinfo_bottom1B0-A0left0.0" vType="DEFAULT_VEHTYPE" speedFactor="1.12" vaporized=""/>
    <tripinfo id="left2A2-A4top0.0" depart="3.00" departLane="left2A2_0" departPos="5.10" departSpeed="0.00" departDelay="3.00" arrival="80.00" arrivalLane="A4top0_0" arrivalPos="239.60" arrivalSpeed="13.73" duration="77.00" routeLength="993.45" waitingTime="0.00" waitingCount="0" stopTime="0.00" timeLoss="8.85" rerouteNo="0" devices="tripinfo_left2A2-A4top0.0" vType="DEFAULT_VEHTYPE" speedFactor="1.07" vaporized=""/>
    <tripinfo id="top0A4-A2left2.0" depart="6.00" departLane="top0A4_0" departPos="5.10" departSpeed="0.00" departDelay="6.00" arrival="82.00" arrivalLane="A2left2_0" arrivalPos="239.60" arrivalSpeed="14.51" duration="76.00" routeLength="983.13" waitingTime="0.00" waitingCount="0" stopTime="0.00" timeLoss="8.61" rerouteNo="0" devices="tripinfo_top0A4-A2left2.0" vType="DEFAULT_VEHTYPE" speedFactor="1.07" vaporized=""/>
    <tripinfo id="bottom2C0-A0left0.0" depart="0.00" departLane="bottom2C0_0" departPos="5.10" departSpeed="0.00" departDelay="0.00" arrival="83.00" arrivalLane="A0left0_1" arrivalPos="239.60" arrivalSpeed="14.48" duration="83.00" routeLength="993.46" waitingTime="4.00" waitingCount="1" stopTime="0.00" timeLoss="18.57" rerouteNo="0" devices="tripinfo_bottom2C0-A0left0.0" vType="DEFAULT_VEHTYPE" speedFactor="1.13" vaporized=""/>
    <tripinfo id="left1A1-B0bottom1.0" depart="6.00" departLane="left1A1_0" departPos="5.10" departSpeed="0.00" departDelay="6.00" arrival="84.00" arrivalLane="B0bottom1_0" arrivalPos="239.60" arrivalSpeed="14.14" duration="78.00" routeLength="983.13" waitingTime="0.00" waitingCount="0" stopTime="0.00" timeLoss="8.89" rerouteNo="0" devices="tripinfo_left1A1-B0bottom1.0" vType="DEFAULT_VEHTYPE" speedFactor="1.04" vaporized=""/>
    <tripinfo id="top1B4-A4left4.0" depart="15.00" departLane="top1B4_0" departPos="5.10" departSpeed="0.00" departDelay="15.00" arrival="87.00" arrivalLane="A4left4_0" arrivalPos="239.60" arrivalSpeed="12.34" duration="72.00" routeLength="733.13" waitingTime="3.00" waitingCount="1" stopTime="0.00" timeLoss="15.98" rerouteNo="0" devices="tripinfo_top1B4-A4left4.0" vType="DEFAULT_VEHTYPE" speedFactor="0.96" vaporized=""/>
    <tripinfo id="bottom0A0-A2left2.0" depart="0.00" departLane="bottom0A0_0" departPos="5.10" departSpeed="0.00" departDelay="0.00" arrival="88.00" arrivalLane="A2left2_1" arrivalPos="239.60" arrivalSpeed="14.38" duration="88.00" routeLength="993.46" waitingTime="9.00" waitingCount="1" stopTime="0.00" timeLoss="19.04" rerouteNo="0" devices="tripinfo_bottom0A0-A2left2.0" vType="DEFAULT_VEHTYPE" speedFactor="1.06" vaporized=""/>
    <tripinfo id="left3A3-B4top1.0" depart="9.00" departLane="left3A3_0" departPos="5.10" departSpeed="0.00" departDelay="9.00" arrival="90.00" arrivalLane="B4top1_0" arrivalPos="239.60" arrivalSpeed="13.09" duration="81.00" routeLength="993.45" waitingTime="0.00" waitingCount="0" stopTime="0.00" timeLoss="8.94" rerouteNo="0" devices="tripinfo_left3A3-B4top1.0" vType="DEFAULT_VEHTYPE" speedFactor="1.00" vaporized=""/>
    <tripinfo id="left3A3-A0bottom0.0" depart="0.00" departLane="left3A3_0" departPos="5.10" departSpeed="0.00" departDelay="0.00" arrival="92.00" arrivalLane="A0bottom0_0" arrivalPos="239.60" arrivalSpeed="14.93" duration="92.00" routeLength="1233.13" waitingTime="0.00" waitingCount="0" stopTime="0.00" timeLoss="9.39" rerouteNo="0" devices="tripinfo_left3A3-A0bottom0.0" vType="DEFAULT_VEHTYPE" speedFactor="1.10" vaporized=""/>
    <tripinfo id="top4E4-E4right4.0" depart="39.00" departLane="top4E4_0" departPos="5.10" departSpeed="0.00" departDelay="39.00" arrival="94.00" arrivalLane="E4right4_0" arrivalPos="239.60" arrivalSpeed="9.84" duration="55.00" routeLength="493.46" waitingTime="0.00" waitingCount="0" stopTime="0.00" timeLoss="6.77" rerouteNo="0" devices="tripinfo_top4E4-E4right4.0" vType="DEFAULT_VEHTYPE" speedFactor="0.76" vaporized=""/>
    <tripinfo id="bottom4E0-E1right1.0" depart="27.00" departLane="bottom4E0_0" departPos="5.10" departSpeed="0.00" departDelay="27.00" arrival="95.00" arrivalLane="E1right1_0" arrivalPos="239.60" arrivalSpeed="11.27" duration="68.00" routeLength="733.13" waitingTime="0.00" waitingCount="0" stopTime="0.00" timeLoss="6.87" rerouteNo="0" devices="tripinfo_bottom4E0-E1right1.0" vType="DEFAULT_VEHTYPE" speedFactor="0.88" vaporized=""/>
    <tripinfo id="right0E0-E0bottom4.0" depart="36.00" departLane="right0E0_0" departPos="5.10" departSpeed="0.00" departDelay="36.00" arrival="95.00" arrivalLane="E0bottom4_1" arrivalPos="239.60" arrivalSpeed="16.28" duration="59.00" routeLength="493.45" waitingTime="8.00" waitingCount="1" stopTime="0.00" timeLoss="27.70" rerouteNo="0" devices="tripinfo_right0E0-E0bottom4.0" vType="DEFAULT_VEHTYPE" speedFactor="1.18" vaporized=""/>
    <tripinfo id="top4E4-E3right3.0" depart="36.00" departLane="top4E4_0" departPos="5.10" departSpeed="0.00" departDelay="36.00" arrival="97.00" arrivalLane="E3right3_1" arrivalPos="239.60" arrivalSpeed="13.51" duration="61.00" routeLength="743.46" waitingTime="0.00" waitingCount="0" stopTime="0.00" timeLoss="7.58" rerouteNo="0" devices="tripinfo_top4E4-E3right3.0" vType="DEFAULT_VEHTYPE" speedFactor="1.02" vaporized=""/>
    <tripinfo id="top3D4-E4right4.0" depart="36.00" departLane="top3D4_0" departPos="5.10" departSpeed="0.00" departDelay="36.00" arrival="101.00" arrivalLane="E4right4_0" arrivalPos="239.60" arrivalSpeed="13.37" duration="65.00" routeLength="743.46" waitingTime="0.00" waitingCount="0" stopTime="0.00" timeLoss="8.48" rerouteNo="0" devices="tripinfo_top3D4-E4right4.0" vType="DEFAULT_VEHTYPE" speedFactor="0.97" vaporized=""/>
    <tripinfo id="left1A1-A4top0.0" depart="3.00" departLane="left1A1_0" departPos="5.10" departSpeed="0.00" departDelay="3.00" arrival="102.00" arrivalLane="A4top0_0" arrivalPos="239.60" arrivalSpeed="13.17" duration="99.00" routeLength="1243.45" waitingTime="0.00" waitingCount="0" stopTime="0.00" timeLoss="8.60" rerouteNo="0" devices="tripinfo_left1A1-A4top0.0" vType="DEFAULT_VEHTYPE" speedFactor="1.00" vaporized=""/>
    <tripinfo id="bottom1B0-A1left1.0" depart="3.00" departLane="bottom1B0_0" departPos="5.10" departSpeed="0.00" departDelay="3.00" arrival="103.00" arrivalLane="A1left1_0" arrivalPos="239.60" arrivalSpeed="12.57" duration="100.00" routeLength="993.46" waitingTime="14.00" waitingCount="1" stopTime="0.00" timeLoss="26.95" rerouteNo="0" devices="tripinfo_bottom1B0-A1left1.0" vType="DEFAULT_VEHTYPE" speedFactor="0.99" vaporized=""/>
    <tripinfo id="left0A0-B0bottom1.0" depart="6.00" departLane="left0A0_0" departPos="5.10" departSpeed="0.00" departDelay="6.00" arrival="104.00" arrivalLane="B0bottom1_0" arrivalPos="239.60" arrivalSpeed="12.60" duration="98.00" routeLength="733.13" waitingTime="25.00" waitingCount="1" stopTime="0.00" timeLoss="40.62" rerouteNo="0" devices="tripinfo_left0A0-B0bottom1.0" vType="DEFAULT_VEHTYPE" speedFactor="0.94" vaporized=""/>
    <tripinfo id="right4E4-E4top4.0" depart="42.00" departLane="right4E4_0" departPos="5.10" departSpeed="0.00" departDelay="42.00" arrival="106.00" arrivalLane="E4top4_0" arrivalPos="239.60" arrivalSpeed="14.56" duration="64.00" routeLength="483.13" waitingTime="5.00" waitingCount="1" stopTime="0.00" timeLoss="31.05" rerouteNo="0" devices="tripinfo_right4E4-E4top4.0" vType="DEFAULT_VEHTYPE" speedFactor="1.09" vaporized=""/>
    <tripinfo id="bottom0A0-A3left3.0" depart="2.00" departLane="bottom0A0_0" departPos="5.10" departSpeed="0.00" departDelay="2.00" arrival="108.00" arrivalLane="A3left3_1" arrivalPos="239.60" arrivalSpeed="12.73" duration="106.00" routeLength="1243.46" waitingTime="0.00" waitingCount="0" stopTime="0.00" timeLoss="9.29" rerouteNo="0" devices="tripinfo_bottom0A0-A3left3.0" vType="DEFAULT_VEHTYPE" speedFactor="0.94" vaporized=""/>
    <tripinfo id="bottom3D0-E1right1.0" depart="30.00" departLane="bottom3D0_0" departPos="5.10" departSpeed="0.00" departDelay="30.00" arrival="108.00" arrivalLane="E1right1_0" arrivalPos="239.60" arrivalSpeed="15.18" duration="78.00" routeLength="983.13" waitingTime="0.00" waitingCount="0" stopTime="0.00" timeLoss="16.76" rerouteNo="0" devices="tripinfo_bottom3D0-E1right1.0" vType="DEFAULT_VEHTYPE" speedFactor="1.17" vaporized=""/>
    <tripinfo id="left4A4-B4top1.0" depart="9.00" departLane="left4A4_0" departPos="5.10" departSpeed="0.00" departDelay="9.00" arrival="109.00" arrivalLane="B4top1_1" arrivalPos="239.60" arrivalSpeed="12.23" duration="100.00" routeLength="743.45" waitingTime="27.00" waitingCount="2" stopTime="0.00" timeLoss="43.46" rerouteNo="0" devices="tripinfo_left4A4-B4top1.0" vType="DEFAULT_VEHTYPE" speedFactor="0.96" vaporized=""/>
    <tripinfo id="top2C4-E4right4.0" depart="36.00" departLane="top2C4_0" departPos="5.10" departSpeed="0.00" departDelay="36.00" arrival="109.00" arrivalLane="E4right4_0" arrivalPos="239.60" arrivalSpeed="17.68" duration="73.00" routeLength="993.46" waitingTime="0.00" waitingCount="0" stopTime="0.00" timeLoss="16.99" rerouteNo="0" devices="tripinfo_top2C4-E4right4.0" vType="DEFAULT_VEHTYPE" speedFactor="1.30" vaporized=""/>
    <tripinfo id="left3A3-B0bottom1.0" depart="6.00" departLane="left3A3_0" departPos="5.10" departSpeed="0.00" departDelay="6.00" arrival="110.00" arrivalLane="B0bottom1_1" arrivalPos="239.60" arrivalSpeed="15.75" duration="104.00" routeLength="1483.13" waitingTime="0.00" waitingCount="0" stopTime="0.00" timeLoss="11.93" rerouteNo="0" devices="tripinfo_left3A3-B0bottom1.0" vType="DEFAULT_VEHTYPE" speedFactor="1.18" vaporized=""/>
    <tripinfo id="top3D4-E3right3.0" depart="33.00" departLane="top3D4_0" departPos="5.10" departSpeed="0.00" departDelay="33.00" arrival="110.00" arrivalLane="E3right3_0" arrivalPos="239.60" arrivalSpeed="17.30" duration="77.00" routeLength="993.46" waitingTime="4.00" waitingCount="1" stopTime="0.00" timeLoss="19.43" rerouteNo="0" devices="tripinfo_top3D4-E3right3.0" vType="DEFAULT_VEHTYPE" speedFactor="1.26" vaporized=""/>
    <tripinfo id="left2A2-B0bottom1.0" depart="6.00" departLane="left2A2_0" departPos="5.10" departSpeed="0.00" departDelay="6.00" arrival="112.00" arrivalLane="B0bottom1_0" arrivalPos="239.60" arrivalSpeed="12.38" duration="106.00" routeLength="1233.13" waitingTime="0.00" waitingCount="0" stopTime="0.00" timeLoss="11.55" rerouteNo="0" devices="tripinfo_left2A2-B0bottom1.0" vType="DEFAULT_VEHTYPE" speedFactor="0.96" vaporized=""/>
    <tripinfo id="top0A4-A0left0.0" depart="3.00" departLane="top0A4_0" departPos="5.10" departSpeed="0.00" departDelay="3.00" arrival="114.00" arrivalLane="A0left0_0" arrivalPos="239.60" arrivalSpeed="13.75" duration="111.00" routeLength="1483.13" waitingTime="0.00" waitingCount="0" stopTime="0.00" timeLoss="10.43" rerouteNo="0" devices="tripinfo_top0A4-A0left0.0" vType="DEFAULT_VEHTYPE" speedFactor="1.07" vaporized=""/>
    <tripinfo id="bottom0A0-A4top0.0" depart="9.00" departLane="bottom0A0_0" departPos="5.10" departSpeed="0.00" departDelay="9.00" arrival="118.00" arrivalLane="A4top0_0" arrivalPos="239.60" arrivalSpeed="14.38" duration="109.00" routeLength="1494.90" waitingTime="0.00" waitingCount="0" stopTime="0.00" timeLoss="8.86" rerouteNo="0" devices="tripinfo_bottom0A0-A4top0.0" vType="DEFAULT_VEHTYPE" speedFactor="1.08" vaporized=""/>
    <tripinfo id="top2C4-A4left4.0" depart="15.00" departLane="top2C4_0" departPos="5.10" departSpeed="0.00" departDelay="15.00" arrival="118.00" arrivalLane="A4left4_0" arrivalPos="239.60" arrivalSpeed="11.65" duration="103.00" routeLength="983.13" waitingTime="10.00" waitingCount="1" stopTime="0.00" timeLoss="25.21" rerouteNo="0" devices="tripinfo_top2C4-A4left4.0" vType="DEFAULT_VEHTYPE" speedFactor="0.93" vaporized=""/>
    <tripinfo id="top1B4-A3left3.0" depart="12.00" departLane="top1B4_0" departPos="5.10" departSpeed="0.00" departDelay="12.00" arrival="119.00" arrivalLane="A3left3_0" arrivalPos="239.60" arrivalSpeed="11.43" duration="107.00" routeLength="983.13" waitingTime="13.00" waitingCount="1" stopTime="0.00" timeLoss="28.59" rerouteNo="0" devices="tripinfo_top1B4-A3left3.0" vType="DEFAULT_VEHTYPE" speedFactor="0.91" vaporized=""/>
    <tripinfo id="right0E0-D0bottom3.0" depart="30.00" departLane="right0E0_0" departPos="5.10" departSpeed="0.00" departDelay="30.00" arrival="120.00" arrivalLane="D0bottom3_1" arrivalPos="239.60" arrivalSpeed="13.88" duration="90.00" routeLength="743.45" waitingTime="9.00" waitingCount="1" stopTime="0.00" timeLoss="38.91" rerouteNo="0" devices="tripinfo_right0E0-D0bottom3.0" vType="DEFAULT_VEHTYPE" speedFactor="1.06" vaporized=""/>
    <tripinfo id="top0A4-A0bottom0.0" depart="0.00" departLane="top0A4_0" departPos="5.10" departSpeed="0.00" departDelay="0.00" arrival="120.00" arrivalLane="A0bottom0_0" arrivalPos="239.60" arrivalSpeed="12.45" duration="120.00" routeLength="1494.90" waitingTime="0.00" waitingCount="0" stopTime="0.00" timeLoss="8.44" rerouteNo="0" devices="tripinfo_top0A4-A0bottom0.0" vType="DEFAULT_VEHTYPE" speedFactor="0.97" vaporized=""/>
    <tripinfo id="top3D4-A4left4.0" depart="12.00" departLane="top3D4_0" departPos="5.10" departSpeed="0.00" departDelay="12.00" arrival="121.00" arrivalLane="A4left4_0" arrivalPos="239.60" arrivalSpeed="14.34" duration="109.00" routeLength="1233.13" waitingTime="1.00" waitingCount="1" stopTime="0.00" timeLoss="22.84" rerouteNo="0" devices="tripinfo_top3D4-A4left4.0" vType="DEFAULT_VEHTYPE" speedFactor="1.04" vaporized=""/>
    <tripinfo id="bottom1B0-B4top1.0" depart="18.00" departLane="bottom1B0_0" departPos="5.10" departSpeed="0.00" departDelay="18.00" arrival="123.00" arrivalLane="B4top1_0" arrivalPos="239.60" arrivalSpeed="15.39" duration="105.00" routeLength="1494.90" waitingTime="0.00" waitingCount="0" stopTime="0.00" timeLoss="11.67" rerouteNo="0" devices="tripinfo_bottom1B0-B4top1.0" vType="DEFAULT_VEHTYPE" speedFactor="1.16" vaporized=""/>
    <tripinfo id="top2C4-A3left3.0" depart="12.00" departLane="top2C4_0" departPos="5.10" departSpeed="0.00" departDelay="12.00" arrival="124.00" arrivalLane="A3left3_0" arrivalPos="239.60" arrivalSpeed="14.23" duration="112.00" routeLength="1233.13" waitingTime="11.00" waitingCount="1" stopTime="0.00" timeLoss="31.10" rerouteNo="0" devices="tripinfo_top2C4-A3left3.0" vType="DEFAULT_VEHTYPE" speedFactor="1.11" vaporized=""/>
    <tripinfo id="top4E4-E1right1.0" depart="29.00" departLane="top4E4_0" departPos="5.10" departSpeed="0.00" departDelay="29.00" arrival="124.00" arrivalLane="E1right1_1" arrivalPos="239.60" arrivalSpeed="14.57" duration="95.00" routeLength="1243.46" waitingTime="0.00" waitingCount="0" stopTime="0.00" timeLoss="11.40" rerouteNo="0" devices="tripinfo_top4E4-E1right1.0" vType="DEFAULT_VEHTYPE" speedFactor="1.08" vaporized=""/>
    <tripinfo id="bottom3D0-A0left0.0" depart="0.00" departLane="bottom3D0_0" departPos="5.10" departSpeed="0.00" departDelay="0.00" arrival="125.00" arrivalLane="A0left0_0" arrivalPos="239.60" arrivalSpeed="13.18" duration="125.00" routeLength="1243.46" waitingTime="8.00" waitingCount="2" stopTime="0.00" timeLoss="30.64" rerouteNo="0" devices="tripinfo_bottom3D0-A0left0.0" vType="DEFAULT_VEHTYPE" speedFactor="0.96" vaporized=""/>
    <tripinfo id="top4E4-E2right2.0" depart="33.00" departLane="top4E4_0" departPos="5.10" departSpeed="0.00" departDelay="33.00" arrival="125.00" arrivalLane="E2right2_1" arrivalPos="239.60" arrivalSpeed="13.04" duration="92.00" routeLength="993.46" waitingTime="1.00" waitingCount="1" stopTime="0.00" timeLoss="15.14" rerouteNo="0" devices="tripinfo_top4E4-E2right2.0" vType="DEFAULT_VEHTYPE" speedFactor="0.95" vaporized=""/>
    <tripinfo id="left0A0-C0bottom2.0" depart="12.00" departLane="left0A0_0" departPos="5.10" departSpeed="0.00" departDelay="12.00" arrival="129.00" arrivalLane="C0bottom2_0" arrivalPos="239.60" arrivalSpeed="13.25" duration="117.00" routeLength="983.13" waitingTime="23.00" waitingCount="1" stopTime="0.00" timeLoss="41.28" rerouteNo="0" devices="tripinfo_left0A0-C0bottom2.0" vType="DEFAULT_VEHTYPE" speedFactor="0.96" vaporized=""/>
    <tripinfo id="bottom0A0-A4left4.0" depart="6.00" departLane="bottom0A0_0" departPos="5.10" departSpeed="0.00" departDelay="6.00" arrival="130.00" arrivalLane="A4left4_1" arrivalPos="239.60" arrivalSpeed="13.71" duration="124.00" routeLength="1493.46" waitingTime="0.00" waitingCount="0" stopTime="0.00" timeLoss="15.95" rerouteNo="0" devices="tripinfo_bottom0A0-A4left4.0" vType="DEFAULT_VEHTYPE" speedFactor="1.01" vaporized=""/>
    <tripinfo id="left4A4-A0bottom0.0" depart="0.00" departLane="left4A4_0" departPos="5.10" departSpeed="0.00" departDelay="0.00" arrival="130.00" arrivalLane="A0bottom0_0" arrivalPos="239.60" arrivalSpeed="12.79" duration="130.00" routeLength="1483.13" waitingTime="9.00" waitingCount="1" stopTime="0.00" timeLoss="23.56" rerouteNo="0" devices="tripinfo_left4A4-A0bottom0.0" vType="DEFAULT_VEHTYPE" speedFactor="1.01" vaporized=""/>
    <tripinfo id="bottom2C0-E1right1.0" depart="24.00" departLane="bottom2C0_0" departPos="5.10" departSpeed="0.00" departDelay="24.00" arrival="131.00" arrivalLane="E1right1_0" arrivalPos="239.60" arrivalSpeed="13.02" duration="107.00" routeLength="1233.13" waitingTime="0.00" waitingCount="0" stopTime="0.00" timeLoss="15.22" rerouteNo="0" devices="tripinfo_bottom2C0-E1right1.0" vType="DEFAULT_VEHTYPE" speedFactor="0.97" vaporized=""/>
    <tripinfo id="bottom3D0-A1left1.0" depart="3.00" departLane="bottom3D0_0" departPos="5.10" departSpeed="0.00" departDelay="3.00" arrival="132.00" arrivalLane="A1left1_1" arrivalPos="239.60" arrivalSpeed="13.91" duration="129.00" routeLength="1493.46" waitingTime="7.00" waitingCount="2" stopTime="0.00" timeLoss="29.73" rerouteNo="0" devices="tripinfo_bottom3D0-A1left1.0" vType="DEFAULT_VEHTYPE" speedFactor="1.09" vaporized=""/>
    <tripinfo id="top1B4-A1left1.0" depart="6.00" departLane="top1B4_0" departPos="5.10" departSpeed="0.00" departDelay="6.00" arrival="133.00" arrivalLane="A1left1_0" arrivalPos="239.60" arrivalSpeed="12.59" duration="127.00" routeLength="1483.13" waitingTime="0.00" waitingCount="0" stopTime="0.00" timeLoss="16.11" rerouteNo="0" devices="tripinfo_top1B4-A1left1.0" vType="DEFAULT_VEHTYPE" speedFactor="0.97" vaporized=""/>
    <tripinfo id="top1B4-B0bottom1.0" depart="18.00" departLane="top1B4_0" departPos="5.10" departSpeed="0.00" departDelay="18.00" arrival="133.00" arrivalLane="B0bottom1_0" arrivalPos="239.60" arrivalSpeed="13.84" duration="115.00" routeLength="1494.90" waitingTime="0.00" waitingCount="0" stopTime="0.00" timeLoss="11.60" rerouteNo="0" devices="tripinfo_top1B4-B0bottom1.0" vType="DEFAULT_VEHTYPE" speedFactor="1.04" vaporized=""/>
    <tripinfo id="bottom1B0-E0right0.0" depart="27.00" departLane="bottom1B0_0" departPos="5.10" departSpeed="0.00" departDelay="27.00" arrival="134.00" arrivalLane="E0right0_0" arrivalPos="239.60" arrivalSpeed="12.53" duration="107.00" routeLength="1233.13" waitingTime="0.00" waitingCount="0" stopTime="0.00" timeLoss="14.56" rerouteNo="0" devices="tripinfo_bottom1B0-E0right0.0" vType="DEFAULT_VEHTYPE" speedFactor="0.98" vaporized=""/>
    <tripinfo id="left0A0-A4top0.0" depart="3.00" departLane="left0A0_0" departPos="5.10" departSpeed="0.00" departDelay="3.00" arrival="134.00" arrivalLane="A4top0_0" arrivalPos="239.60" arrivalSpeed="12.81" duration="131.00" routeLength="1493.45" waitingTime="6.00" waitingCount="1" stopTime="0.00" timeLoss="19.25" rerouteNo="0" devices="tripinfo_left0A0-A4top0.0" vType="DEFAULT_VEHTYPE" speedFactor="0.97" vaporized=""/>
    <tripinfo id="bottom2C0-C4top2.0" depart="18.00" departLane="bottom2C0_0" departPos="5.10" departSpeed="0.00" departDelay="18.00" arrival="135.00" arrivalLane="C4top2_0" arrivalPos="239.60" arrivalSpeed="13.36" duration="117.00" routeLength="1494.90" waitingTime="0.00" waitingCount="0" stopTime="0.00" timeLoss="8.14" rerouteNo="0" devices="tripinfo_bottom2C0-C4top2.0" vType="DEFAULT_VEHTYPE" speedFactor="0.99" vaporized=""/>
    <tripinfo id="top1B4-A0left0.0" depart="3.00" departLane="top1B4_0" departPos="5.10" departSpeed="0.00" departDelay="3.00" arrival="135.00" arrivalLane="A0left0_0" arrivalPos="239.60" arrivalSpeed="15.79" duration="132.00" routeLength="1733.13" waitingTime="1.00" waitingCount="1" stopTime="0.00" timeLoss="21.37" rerouteNo="0" devices="tripinfo_top1B4-A0left0.0" vType="DEFAULT_VEHTYPE" speedFactor="1.14" vaporized=""/>
    <tripinfo id="top1B4-A2left2.0" depart="9.00" departLane="top1B4_0" departPos="5.10" departSpeed="0.00" departDelay="9.00" arrival="135.00" arrivalLane="A2left2_0" arrivalPos="239.60" arrivalSpeed="15.94" duration="126.00" routeLength="1233.13" waitingTime="27.00" waitingCount="1" stopTime="0.00" timeLoss="47.66" rerouteNo="0" devices="tripinfo_top1B4-A2left2.0" vType="DEFAULT_VEHTYPE" speedFactor="1.15" vaporized=""/>
    <tripinfo id="bottom1B0-A2left2.0" depart="6.00" departLane="bottom1B0_0" departPos="5.10" departSpeed="0.00" departDelay="6.00" arrival="139.00" arrivalLane="A2left2_1" arrivalPos="239.60" arrivalSpeed="12.71" duration="133.00" routeLength="1243.46" waitingTime="21.00" waitingCount="1" stopTime="0.00" timeLoss="35.30" rerouteNo="0" devices="tripinfo_bottom1B0-A2left2.0" vType="DEFAULT_VEHTYPE" speedFactor="0.93" vaporized=""/>
    <tripinfo id="right3E3-E4top4.0" depart="39.00" departLane="right3E3_0" departPos="5.10" departSpeed="0.00" departDelay="39.00" arrival="139.00" arrivalLane="E4top4_0" arrivalPos="239.60" arrivalSpeed="12.48" duration="100.00" routeLength="733.13" waitingTime="20.00" waitingCount="2" stopTime="0.00" timeLoss="42.68" rerouteNo="0" devices="tripinfo_right3E3-E4top4.0" vType="DEFAULT_VEHTYPE" speedFactor="0.95" vaporized=""/>
    <tripinfo id="left1A1-B4top1.0" depart="9.00" departLane="left1A1_0" departPos="5.10" departSpeed="0.00" departDelay="9.00" arrival="140.00" arrivalLane="B4top1_0" arrivalPos="239.60" arrivalSpeed="12.71" duration="131.00" routeLength="1493.45" waitingTime="9.00" waitingCount="1" stopTime="0.00" timeLoss="22.95" rerouteNo="0" devices="tripinfo_left1A1-B4top1.0" vType="DEFAULT_VEHTYPE" speedFactor="1.01" vaporized=""/>
    <tripinfo id="left2A2-C0bottom2.0" depart="12.00" departLane="left2A2_0" departPos="5.10" departSpeed="0.00" departDelay="12.00" arrival="140.00" arrivalLane="C0bottom2_0" arrivalPos="239.60" arrivalSpeed="12.79" duration="128.00" routeLength="1483.13" waitingTime="0.00" waitingCount="0" stopTime="0.00" timeLoss="14.84" rerouteNo="0" devices="tripinfo_left2A2-C0bottom2.0" vType="DEFAULT_VEHTYPE" speedFactor="0.95" vaporized=""/>
    <tripinfo id="right2E2-E0bottom4.0" depart="36.00" departLane="right2E2_0" departPos="5.10" departSpeed="0.00" departDelay="36.00" arrival="140.00" arrivalLane="E0bottom4_0" arrivalPos="239.60" arrivalSpeed="12.38" duration="104.00" routeLength="993.45" waitingTime="12.00" waitingCount="1" stopTime="0.00" timeLoss="24.76" rerouteNo="0" devices="tripinfo_right2E2-E0bottom4.0" vType="DEFAULT_VEHTYPE" speedFactor="0.92" vaporized=""/>
    <tripinfo id="left2A2-B4top1.0" depart="9.00" departLane="left2A2_0" departPos="5.10" departSpeed="0.00" departDelay="9.00" arrival="141.00" arrivalLane="B4top1_0" arrivalPos="239.60" arrivalSpeed="12.77" duration="132.00" routeLength="1243.45" waitingTime="24.00" waitingCount="1" stopTime="0.00" timeLoss="38.52" rerouteNo="0" devices="tripinfo_left2A2-B4top1.0" vType="DEFAULT_VEHTYPE" speedFactor="0.97" vaporized=""/>
    <tripinfo id="right0E0-A0left0.0" depart="3.00" departLane="right0E0_0" departPos="5.10" departSpeed="0.00" departDelay="3.00" arrival="141.00" arrivalLane="A0left0_0" arrivalPos="239.60" arrivalSpeed="14.60" duration="138.00" routeLength="1494.90" waitingTime="19.00" waitingCount="1" stopTime="0.00" timeLoss="43.23" rerouteNo="0" devices="tripinfo_right0E0-A0left0.0" vType="DEFAULT_VEHTYPE" speedFactor="1.14" vaporized=""/>
    <tripinfo id="right4E4-D4top3.0" depart="36.00" departLane="right4E4_0" departPos="5.10" departSpeed="0.00" departDelay="36.00" arrival="141.00" arrivalLane="D4top3_0" arrivalPos="239.60" arrivalSpeed="14.64" duration="105.00" routeLength="733.13" waitingTime="12.00" waitingCount="3" stopTime="0.00" timeLoss="56.62" rerouteNo="0" devices="tripinfo_right4E4-D4top3.0" vType="DEFAULT_VEHTYPE" speedFactor="1.10" vaporized=""/>
    <tripinfo id="top2C4-A2left2.0" depart="9.00" departLane="top2C4_0" departPos="5.10" departSpeed="0.00" departDelay="9.00" arrival="142.00" arrivalLane="A2left2_0" arrivalPos="239.60" arrivalSpeed="14.71" duration="133.00" routeLength="1483.13" waitingTime="13.00" waitingCount="2" stopTime="0.00" timeLoss="38.51" rerouteNo="0" devices="tripinfo_top2C4-A2left2.0" vType="DEFAULT_VEHTYPE" speedFactor="1.14" vaporized=""/>
    <tripinfo id="top3D4-D0bottom3.0" depart="21.00" departLane="top3D4_0" departPos="5.10" departSpeed="0.00" departDelay="21.00" arrival="142.00" arrivalLane="D0bottom3_0" arrivalPos="239.60" arrivalSpeed="12.71" duration="121.00" routeLength="1494.90" waitingTime="0.00" waitingCount="0" stopTime="0.00" timeLoss="9.15" rerouteNo="0" devices="tripinfo_top3D4-D0bottom3.0" vType="DEFAULT_VEHTYPE" speedFactor="0.96" vaporized=""/>