<?xml version="1.0" encoding="UTF-8"?>

<!-- generated on Wed Jun 23 15:49:50 2021 by Eclipse SUMO sumo Version 1.7.0
<configuration xmlns:xsi="http://www.w3.org/2001/XMLSchema-instance" xsi:noNamespaceSchemaLocation="http://sumo.dlr.de/xsd/sumoConfiguration.xsd">

    <input>
        <net-file value="meta.net.xml"/>
        <route-files value="routes/meta_stops5998004614640185187.rou.xml"/>
        <additional-files value="meta_parking-areas.xml"/>
    </input>

    <output>
        <tripinfo-output value="trips/tripinfo5998004614640185187.xml"/>
    </output>

    <traci_server>
        <remote-port value="52196"/>
    </traci_server>

</configuration>
-->

<tripinfos xmlns:xsi="http://www.w3.org/2001/XMLSchema-instance" xsi:noNamespaceSchemaLocation="http://sumo.dlr.de/xsd/tripinfo_file.xsd">
    <tripinfo id="left0A0-A0bottom0.0" depart="0.00" departLane="left0A0_0" departPos="5.10" departSpeed="0.00" departDelay="0.00" arrival="42.00" arrivalLane="A0bottom0_0" arrivalPos="239.60" arrivalSpeed="13.24" duration="42.00" routeLength="483.13" waitingTime="0.00" waitingCount="0" stopTime="0.00" timeLoss="6.78" rerouteNo="0" devices="tripinfo_left0A0-A0bottom0.0" vType="DEFAULT_VEHTYPE" speedFactor="1.02" vaporized=""/>
    <tripinfo id="top0A4-A4left4.0" depart="12.00" departLane="top0A4_0" departPos="5.10" departSpeed="0.00" departDelay="12.00" arrival="54.00" arrivalLane="A4left4_0" arrivalPos="239.60" arrivalSpeed="13.64" duration="42.00" routeLength="483.13" waitingTime="0.00" waitingCount="0" stopTime="0.00" timeLoss="6.31" rerouteNo="0" devices="tripinfo_top0A4-A4left4.0" vType="DEFAULT_VEHTYPE" speedFactor="1.00" vaporized=""/>
    <tripinfo id="left4A4-A4top0.0" depart="3.00" departLane="left4A4_0" departPos="5.10" departSpeed="0.00" departDelay="3.00" arrival="58.00" arrivalLane="A4top0_1" arrivalPos="239.60" arrivalSpeed="14.21" duration="55.00" routeLength="493.45" waitingTime="10.00" waitingCount="1" stopTime="0.00" timeLoss="19.26" rerouteNo="0" devices="tripinfo_left4A4-A4top0.0" vType="DEFAULT_VEHTYPE" speedFactor="1.03" vaporized=""/>
    <tripinfo id="left1A1-A0bottom0.0" depart="0.00" departLane="left1A1_0" departPos="5.10" departSpeed="0.00" departDelay="0.00" arrival="63.00" arrivalLane="A0bottom0_0" arrivalPos="239.60" arrivalSpeed="13.54" duration="63.00" routeLength="733.13" waitingTime="0.00" waitingCount="0" stopTime="0.00" timeLoss="8.38" rerouteNo="0" devices="tripinfo_left1A1-A0bottom0.0" vType="DEFAULT_VEHTYPE" speedFactor="0.98" vaporized=""/>
    <tripinfo id="bottom4E0-E0right0.0" depart="24.00" departLane="bottom4E0_0" departPos="5.10" departSpeed="0.00" departDelay="24.00" arrival="68.00" arrivalLane="E0right0_0" arrivalPos="239.60" arrivalSpeed="12.78" duration="44.00" routeLength="483.13" waitingTime="0.00" waitingCount="0" stopTime="0.00" timeLoss="6.41" rerouteNo="0" devices="tripinfo_bottom4E0-E0right0.0" vType="DEFAULT_VEHTYPE" speedFactor="0.94" vaporized=""/>
    <tripinfo id="left3A3-A4top0.0" depart="3.00" departLane="left3A3_0" departPos="5.10" departSpeed="0.00" departDelay="3.00" arrival="70.00" arrivalLane="A4top0_0" arrivalPos="239.60" arrivalSpeed="11.82" duration="67.00" routeLength="743.45" waitingTime="0.00" waitingCount="0" stopTime="0.00" timeLoss="7.98" rerouteNo="0" devices="tripinfo_left3A3-A4top0.0" vType="DEFAULT_VEHTYPE" speedFactor="0.92" vaporized=""/>
    <tripinfo id="left2A2-A0bottom0.0" depart="0.00" departLane="left2A2_0" departPos="5.10" departSpeed="0.00" departDelay="0.00" arrival="75.00" arrivalLane="A0bottom0_0" arrivalPos="239.60" arrivalSpeed="15.11" duration="75.00" routeLength="983.13" waitingTime="0.00" waitingCount="0" stopTime="0.00" timeLoss="9.82" rerouteNo="0" devices="tripinfo_left2A2-A0bottom0.0" vType="DEFAULT_VEHTYPE" speedFactor="1.10" vaporized=""/>
    <tripinfo id="top0A4-A3left3.0" depart="9.00" departLane="top0A4_0" departPos="5.10" departSpeed="0.00" departDelay="9.00" arrival="75.00" arrivalLane="A3left3_0" arrivalPos="239.60" arrivalSpeed="12.30" duration="66.00" routeLength="733.13" waitingTime="0.00" waitingCount="0" stopTime="0.00" timeLoss="6.83" rerouteNo="0" devices="tripinfo_top0A4-A3left3.0" vType="DEFAULT_VEHTYPE" speedFactor="0.91" vaporized=""/>
    <tripinfo id="bottom1B0-A0left0.0" depart="0.00" departLane="bottom1B0_0" departPos="5.10" departSpeed="0.00" departDelay="0.00" arrival="78.00" arrivalLane="A0left0_0" arrivalPos="239.60" arrivalSpeed="14.30" duration="78.00" routeLength="743.46" waitingTime="16.00" waitingCount="1" stopTime="0.00" timeLoss="29.64" rerouteNo="0" devices="tripinfo_bottom1B0-A0left0.0" vType="DEFAULT_VEHTYPE" speedFactor="1.12" vaporized=""/>
    <tripinfo id="left2A2-A4top0.0" depart="3.00" departLane="left2A2_0" departPos="5.10" departSpeed="0.00" departDelay="3.00" arrival="80.00" arrivalLane="A4top0_0" arrivalPos="239.60" arrivalSpeed="14.78" duration="77.00" routeLength="993.45" waitingTime="0.00" waitingCount="0" stopTime="0.00" timeLoss="8.69" rerouteNo="0" devices="tripinfo_left2A2-A4top0.0" vType="DEFAULT_VEHTYPE" speedFactor="1.07" vaporized=""/>
    <tripinfo id="top0A4-A2left2.0" depart="6.00" departLane="top0A4_0" departPos="5.10" departSpeed="0.00" departDelay="6.00" arrival="82.00" arrivalLane="A2left2_0" arrivalPos="239.60" arrivalSpeed="14.30" duration="76.00" routeLength="983.13" waitingTime="0.00" waitingCount="0" stopTime="0.00" timeLoss="8.85" rerouteNo="0" devices="tripinfo_top0A4-A2left2.0" vType="DEFAULT_VEHTYPE" speedFactor="1.07" vaporized=""/>
    <tripinfo id="bottom2C0-A0left0.0" depart="0.00" departLane="bottom2C0_0" departPos="5.10" departSpeed="0.00" departDelay="0.00" arrival="84.00" arrivalLane="A0left0_1" arrivalPos="239.60" arrivalSpeed="15.34" duration="84.00" routeLength="993.46" waitingTime="4.00" waitingCount="1" stopTime="0.00" timeLoss="19.16" rerouteNo="0" devices="tripinfo_bottom2C0-A0left0.0" vType="DEFAULT_VEHTYPE" speedFactor="1.13" vaporized=""/>
    <tripinfo id="left1A1-B0bottom1.0" depart="6.00" departLane="left1A1_0" departPos="5.10" departSpeed="0.00" departDelay="6.00" arrival="84.00" arrivalLane="B0bottom1_0" arrivalPos="239.60" arrivalSpeed="13.68" duration="78.00" routeLength="983.13" waitingTime="0.00" waitingCount="0" stopTime="0.00" timeLoss="8.97" rerouteNo="0" devices="tripinfo_left1A1-B0bottom1.0" vType="DEFAULT_VEHTYPE" speedFactor="1.04" vaporized=""/>
    <tripinfo id="bottom0A0-A2left2.0" depart="0.00" departLane="bottom0A0_0" departPos="5.10" departSpeed="0.00" departDelay="0.00" arrival="85.00" arrivalLane="A2left2_1" arrivalPos="239.60" arrivalSpeed="13.80" duration="85.00" routeLength="993.46" waitingTime="5.00" waitingCount="1" stopTime="0.00" timeLoss="16.35" rerouteNo="0" devices="tripinfo_bottom0A0-A2left2.0" vType="DEFAULT_VEHTYPE" speedFactor="1.06" vaporized=""/>
    <tripinfo id="top1B4-A4left4.0" depart="15.00" departLane="top1B4_0" departPos="5.10" departSpeed="0.00" departDelay="15.00" arrival="88.00" arrivalLane="A4left4_0" arrivalPos="239.60" arrivalSpeed="12.28" duration="73.00" routeLength="733.13" waitingTime="3.00" waitingCount="1" stopTime="0.00" timeLoss="16.36" rerouteNo="0" devices="tripinfo_top1B4-A4left4.0" vType="DEFAULT_VEHTYPE" speedFactor="0.96" vaporized=""/>
    <tripinfo id="left3A3-B4top1.0" depart="9.00" departLane="left3A3_0" departPos="5.10" departSpeed="0.00" departDelay="9.00" arrival="90.00" arrivalLane="B4top1_0" arrivalPos="239.60" arrivalSpeed="13.05" duration="81.00" routeLength="993.45" waitingTime="0.00" waitingCount="0" stopTime="0.00" timeLoss="9.03" rerouteNo="0" devices="tripinfo_left3A3-B4top1.0" vType="DEFAULT_VEHTYPE" speedFactor="1.00" vaporized=""/>
    <tripinfo id="left3A3-A0bottom0.0" depart="0.00" departLane="left3A3_0" departPos="5.10" departSpeed="0.00" departDelay="0.00" arrival="92.00" arrivalLane="A0bottom0_0" arrivalPos="239.60" arrivalSpeed="14.06" duration="92.00" routeLength="1233.13" waitingTime="0.00" waitingCount="0" stopTime="0.00" timeLoss="9.68" rerouteNo="0" devices="tripinfo_left3A3-A0bottom0.0" vType="DEFAULT_VEHTYPE" speedFactor="1.10" vaporized=""/>
    <tripinfo id="top4E4-E4right4.0" depart="39.00" departLane="top4E4_0" departPos="5.10" departSpeed="0.00" departDelay="39.00" arrival="94.00" arrivalLane="E4right4_0" arrivalPos="239.60" arrivalSpeed="10.32" duration="55.00" routeLength="493.46" waitingTime="0.00" waitingCount="0" stopTime="0.00" timeLoss="6.33" rerouteNo="0" devices="tripinfo_top4E4-E4right4.0" vType="DEFAULT_VEHTYPE" speedFactor="0.76" vaporized=""/>
    <tripinfo id="bottom4E0-E1right1.0" depart="27.00" departLane="bottom4E0_0" departPos="5.10" departSpeed="0.00" departDelay="27.00" arrival="95.00" arrivalLane="E1right1_0" arrivalPos="239.60" arrivalSpeed="10.96" duration="68.00" routeLength="733.13" waitingTime="0.00" waitingCount="0" stopTime="0.00" timeLoss="7.15" rerouteNo="0" devices="tripinfo_bottom4E0-E1right1.0" vType="DEFAULT_VEHTYPE" speedFactor="0.88" vaporized=""/>
    <tripinfo id="right0E0-E0bottom4.0" depart="36.00" departLane="right0E0_0" departPos="5.10" departSpeed="0.00" departDelay="36.00" arrival="95.00" arrivalLane="E0bottom4_1" arrivalPos="239.60" arrivalSpeed="15.50" duration="59.00" routeLength="493.45" waitingTime="8.00" waitingCount="1" stopTime="0.00" timeLoss="27.73" rerouteNo="0" devices="tripinfo_right0E0-E0bottom4.0" vType="DEFAULT_VEHTYPE" speedFactor="1.18" vaporized=""/>
    <tripinfo id="top4E4-E3right3.0" depart="36.00" departLane="top4E4_0" departPos="5.10" departSpeed="0.00" departDelay="36.00" arrival="97.00" arrivalLane="E3right3_1" arrivalPos="239.60" arrivalSpeed="13.65" duration="61.00" routeLength="743.46" waitingTime="0.00" waitingCount="0" stopTime="0.00" timeLoss="7.55" rerouteNo="0" devices="tripinfo_top4E4-E3right3.0" vType="DEFAULT_VEHTYPE" speedFactor="1.02" vaporized=""/>
    <tripinfo id="bottom3D0-E0right0.0" depart="27.00" departLane="bottom3D0_0" departPos="5.10" departSpeed="0.00" departDelay="27.00" arrival="100.00" arrivalLane="E0right0_0" arrivalPos="239.60" arrivalSpeed="10.77" duration="73.00" routeLength="733.13" waitingTime="0.00" waitingCount="0" stopTime="0.00" timeLoss="9.45" rerouteNo="0" devices="tripinfo_bottom3D0-E0right0.0" vType="DEFAULT_VEHTYPE" speedFactor="0.85" vaporized=""/>
    <tripinfo id="top3D4-E4right4.0" depart="36.00" departLane="top3D4_0" departPos="5.10" departSpeed="0.00" departDelay="36.00" arrival="101.00" arrivalLane="E4right4_0" arrivalPos="239.60" arrivalSpeed="13.15" duration="65.00" routeLength="743.46" waitingTime="0.00" waitingCount="0" stopTime="0.00" timeLoss="8.94" rerouteNo="0" devices="tripinfo_top3D4-E4right4.0" vType="DEFAULT_VEHTYPE" speedFactor="0.97" vaporized=""/>
    <tripinfo id="left1A1-A4top0.0" depart="3.00" departLane="left1A1_0" departPos="5.10" departSpeed="0.00" departDelay="3.00" arrival="102.00" arrivalLane="A4top0_0" arrivalPos="239.60" arrivalSpeed="13.39" duration="99.00" routeLength="1243.45" waitingTime="0.00" waitingCount="0" stopTime="0.00" timeLoss="8.63" rerouteNo="0" devices="tripinfo_left1A1-A4top0.0" vType="DEFAULT_VEHTYPE" speedFactor="1.00" vaporized=""/>
    <tripinfo id="bottom1B0-A1left1.0" depart="3.00" departLane="bottom1B0_0" departPos="5.10" departSpeed="0.00" departDelay="3.00" arrival="103.00" arrivalLane="A1left1_0" arrivalPos="239.60" arrivalSpeed="13.52" duration="100.00" routeLength="993.46" waitingTime="15.00" waitingCount="1" stopTime="0.00" timeLoss="26.99" rerouteNo="0" devices="tripinfo_bottom1B0-A1left1.0" vType="DEFAULT_VEHTYPE" speedFactor="0.99" vaporized=""/>
    <tripinfo id="left0A0-B0bottom1.0" depart="6.00" departLane="left0A0_0" departPos="5.10" departSpeed="0.00" departDelay="6.00" arrival="103.00" arrivalLane="B0bottom1_0" arrivalPos="239.60" arrivalSpeed="12.09" duration="97.00" routeLength="733.13" waitingTime="25.00" waitingCount="1" stopTime="0.00" timeLoss="40.27" rerouteNo="0" devices="tripinfo_left0A0-B0bottom1.0" vType="DEFAULT_VEHTYPE" speedFactor="0.94" vaporized=""/>
    <tripinfo id="right4E4-E4top4.0" depart="42.00" departLane="right4E4_0" departPos="5.10" departSpeed="0.00" departDelay="42.00" arrival="107.00" arrivalLane="E4top4_0" arrivalPos="239.60" arrivalSpeed="14.46" duration="65.00" routeLength="483.13" waitingTime="7.00" waitingCount="1" stopTime="0.00" timeLoss="31.19" rerouteNo="0" devices="tripinfo_right4E4-E4top4.0" vType="DEFAULT_VEHTYPE" speedFactor="1.09" vaporized=""/>
    <tripinfo id="bottom0A0-A3left3.0" depart="2.00" departLane="bottom0A0_0" departPos="5.10" departSpeed="0.00" departDelay="2.00" arrival="108.00" arrivalLane="A3left3_1" arrivalPos="239.60" arrivalSpeed="12.02" duration="106.00" routeLength="1243.46" waitingTime="0.00" waitingCount="0" stopTime="0.00" timeLoss="9.73" rerouteNo="0" devices="tripinfo_bottom0A0-A3left3.0" vType="DEFAULT_VEHTYPE" speedFactor="0.94" vaporized=""/>
    <tripinfo id="bottom3D0-E1right1.0" depart="30.00" departLane="bottom3D0_0" departPos="5.10" departSpeed="0.00" departDelay="30.00" arrival="108.00" arrivalLane="E1right1_0" arrivalPos="239.60" arrivalSpeed="15.40" duration="78.00" routeLength="983.13" waitingTime="0.00" waitingCount="0" stopTime="0.00" timeLoss="16.67" rerouteNo="0" devices="tripinfo_bottom3D0-E1right1.0" vType="DEFAULT_VEHTYPE" speedFactor="1.17" vaporized=""/>
    <tripinfo id="top2C4-E4right4.0" depart="36.00" departLane="top2C4_0" departPos="5.10" departSpeed="0.00" departDelay="36.00" arrival="109.00" arrivalLane="E4right4_1" arrivalPos="239.60" arrivalSpeed="16.88" duration="73.00" routeLength="993.46" waitingTime="0.00" waitingCount="0" stopTime="0.00" timeLoss="17.41" rerouteNo="0" devices="tripinfo_top2C4-E4right4.0" vType="DEFAULT_VEHTYPE" speedFactor="1.30" vaporized=""/>
    <tripinfo id="left4A4-B4top1.0" depart="9.00" departLane="left4A4_0" departPos="5.10" departSpeed="0.00" departDelay="9.00" arrival="110.00" arrivalLane="B4top1_1" arrivalPos="239.60" arrivalSpeed="12.62" duration="101.00" routeLength="743.45" waitingTime="27.00" waitingCount="2" stopTime="0.00" timeLoss="43.77" rerouteNo="0" devices="tripinfo_left4A4-B4top1.0" vType="DEFAULT_VEHTYPE" speedFactor="0.96" vaporized=""/>
    <tripinfo id="top0A4-A0left0.0" depart="3.00" departLane="top0A4_0" departPos="5.10" departSpeed="0.00" departDelay="3.00" arrival="114.00" arrivalLane="A0left0_0" arrivalPos="239.60" arrivalSpeed="14.38" duration="111.00" routeLength="1483.13" waitingTime="0.00" waitingCount="0" stopTime="0.00" timeLoss="10.13" rerouteNo="0" devices="tripinfo_top0A4-A0left0.0" vType="DEFAULT_VEHTYPE" speedFactor="1.07" vaporized=""/>
    <tripinfo id="top2C4-A4left4.0" depart="15.00" departLane="top2C4_0" departPos="5.10" departSpeed="0.00" departDelay="15.00" arrival="117.00" arrivalLane="A4left4_0" arrivalPos="239.60" arrivalSpeed="12.76" duration="102.00" routeLength="983.13" waitingTime="11.00" waitingCount="1" stopTime="0.00" timeLoss="24.21" rerouteNo="0" devices="tripinfo_top2C4-A4left4.0" vType="DEFAULT_VEHTYPE" speedFactor="0.93" vaporized=""/>
    <tripinfo id="top3D4-E3right3.0" depart="33.00" departLane="top3D4_0" departPos="5.10" departSpeed="0.00" departDelay="33.00" arrival="117.00" arrivalLane="E3right3_0" arrivalPos="239.60" arrivalSpeed="17.50" duration="84.00" routeLength="993.46" waitingTime="9.00" waitingCount="1" stopTime="0.00" timeLoss="26.49" rerouteNo="0" devices="tripinfo_top3D4-E3right3.0" vType="DEFAULT_VEHTYPE" speedFactor="1.26" vaporized=""/>
    <tripinfo id="bottom4E0-E2right2.0" depart="30.00" departLane="bottom4E0_0" departPos="5.10" departSpeed="0.00" departDelay="30.00" arrival="119.00" arrivalLane="E2right2_0" arrivalPos="239.60" arrivalSpeed="11.82" duration="89.00" routeLength="983.13" waitingTime="0.00" waitingCount="0" stopTime="0.00" timeLoss="10.20" rerouteNo="0" devices="tripinfo_bottom4E0-E2right2.0" vType="DEFAULT_VEHTYPE" speedFactor="0.91" vaporized=""/>
    <tripinfo id="top0A4-A0bottom0.0" depart="0.00" departLane="top0A4_0" departPos="5.10" departSpeed="0.00" departDelay="0.00" arrival="120.00" arrivalLane="A0bottom0_0" arrivalPos="239.60" arrivalSpeed="12.55" duration="120.00" routeLength="1494.90" waitingTime="0.00" waitingCount="0" stopTime="0.00" timeLoss="8.40" rerouteNo="0" devices="tripinfo_top0A4-A0bottom0.0" vType="DEFAULT_VEHTYPE" speedFactor="0.97" vaporized=""/>
    <tripinfo id="bottom0A0-A4top0.0" depart="9.00" departLane="bottom0A0_0" departPos="5.10" departSpeed="0.00" departDelay="9.00" arrival="121.00" arrivalLane="A4top0_0" arrivalPos="239.60" arrivalSpeed="14.15" duration="112.00" routeLength="1494.90" waitingTime="0.00" waitingCount="0" stopTime="0.00" timeLoss="11.80" rerouteNo="0" devices="tripinfo_bottom0A0-A4top0.0" vType="DEFAULT_VEHTYPE" speedFactor="1.08" vaporized=""/>
    <tripinfo id="left3A3-C4top2.0" depart="15.00" departLane="left3A3_0" departPos="5.10" departSpeed="0.00" departDelay="15.00" arrival="121.00" arrivalLane="C4top2_0" arrivalPos="239.60" arrivalSpeed="14.35" duration="106.00" routeLength="1243.45" waitingTime="5.00" waitingCount="1" stopTime="0.00" timeLoss="21.22" rerouteNo="0" devices="tripinfo_left3A3-C4top2.0" vType="DEFAULT_VEHTYPE" speedFactor="1.07" vaporized=""/>
    <tripinfo id="bottom2C0-A1left1.0" depart="3.00" departLane="bottom2C0_0" departPos="5.10" departSpeed="0.00" departDelay="3.00" arrival="122.00" arrivalLane="A1left1_0" arrivalPos="239.60" arrivalSpeed="12.40" duration="119.00" routeLength="1243.46" waitingTime="5.00" waitingCount="1" stopTime="0.00" timeLoss="21.82" rerouteNo="0" devices="tripinfo_bottom2C0-A1left1.0" vType="DEFAULT_VEHTYPE" speedFactor="0.93" vaporized=""/>
    <tripinfo id="right0E0-D0bottom3.0" depart="30.00" departLane="right0E0_0" departPos="5.10" departSpeed="0.00" departDelay="30.00" arrival="123.00" arrivalLane="D0bottom3_1" arrivalPos="239.60" arrivalSpeed="14.62" duration="93.00" routeLength="743.45" waitingTime="10.00" waitingCount="2" stopTime="0.00" timeLoss="41.39" rerouteNo="0" devices="tripinfo_right0E0-D0bottom3.0" vType="DEFAULT_VEHTYPE" speedFactor="1.06" vaporized=""/>
    <tripinfo id="top2C4-A3left3.0" depart="12.00" departLane="top2C4_0" departPos="5.10" departSpeed="0.00" departDelay="12.00" arrival="123.00" arrivalLane="A3left3_0" arrivalPos="239.60" arrivalSpeed="14.49" duration="111.00" routeLength="1233.13" waitingTime="12.00" waitingCount="1" stopTime="0.00" timeLoss="30.60" rerouteNo="0" devices="tripinfo_top2C4-A3left3.0" vType="DEFAULT_VEHTYPE" speedFactor="1.11" vaporized=""/>
    <tripinfo id="top4E4-E2right2.0" depart="33.00" departLane="top4E4_0" departPos="5.10" departSpeed="0.00" departDelay="33.00" arrival="123.00" arrivalLane="E2right2_1" arrivalPos="239.60" arrivalSpeed="12.36" duration="90.00" routeLength="993.46" waitingTime="0.00" waitingCount="0" stopTime="0.00" timeLoss="13.64" rerouteNo="0" devices="tripinfo_top4E4-E2right2.0" vType="DEFAULT_VEHTYPE" speedFactor="0.95" vaporized=""/>
    <tripinfo id="bottom3D0-A0left0.0" depart="0.00" departLane="bottom3D0_0" departPos="5.10" departSpeed="0.00" departDelay="0.00" arrival="124.00" arrivalLane="A0left0_0" arrivalPos="239.60" arrivalSpeed="12.07" duration="124.00" routeLength="1243.46" waitingTime="9.00" waitingCount="2" stopTime="0.00" timeLoss="29.49" rerouteNo="0" devices="tripinfo_bottom3D0-A0left0.0" vType="DEFAULT_VEHTYPE" speedFactor="0.96" vaporized=""/>
    <tripinfo id="top4E4-E1right1.0" depart="29.00" departLane="top4E4_0" departPos="5.10" departSpeed="0.00" departDelay="29.00" arrival="124.00" arrivalLane="E1right1_1" arrivalPos="239.60" arrivalSpeed="14.41" duration="95.00" routeLength="1243.46" waitingTime="0.00" waitingCount="0" stopTime="0.00" timeLoss="11.36" rerouteNo="0" devices="tripinfo_top4E4-E1right1.0" vType="DEFAULT_VEHTYPE" speedFactor="1.08" vaporized=""/>
    <tripinfo id="left0A0-C0bottom2.0" depart="12.00" departLane="left0A0_0" departPos="5.10" departSpeed="0.00" departDelay="12.00" arrival="128.00" arrivalLane="C0bottom2_0" arrivalPos="239.60" arrivalSpeed="12.89" duration="116.00" routeLength="983.13" waitingTime="23.00" waitingCount="1" stopTime="0.00" timeLoss="40.24" rerouteNo="0" devices="tripinfo_left0A0-C0bottom2.0" vType="DEFAULT_VEHTYPE" speedFactor="0.96" vaporized=""/>
    <tripinfo id="bottom0A0-A4left4.0" depart="6.00" departLane="bottom0A0_0" departPos="5.10" departSpeed="0.00" departDelay="6.00" arrival="129.00" arrivalLane="A4left4_1" arrivalPos="239.60" arrivalSpeed="13.50" duration="123.00" routeLength="1493.46" waitingTime="0.00" waitingCount="0" stopTime="0.00" timeLoss="15.20" rerouteNo="0" devices="tripinfo_bottom0A0-A4left4.0" vType="DEFAULT_VEHTYPE" speedFactor="1.01" vaporized=""/>
    <tripinfo id="top1B4-A2left2.0" depart="9.00" departLane="top1B4_0" departPos="5.10" departSpeed="0.00" departDelay="9.00" arrival="129.00" arrivalLane="A2left2_1" arrivalPos="239.60" arrivalSpeed="15.55" duration="120.00" routeLength="1233.13" waitingTime="21.00" waitingCount="1" stopTime="0.00" timeLoss="41.55" rerouteNo="0" devices="tripinfo_top1B4-A2left2.0" vType="DEFAULT_VEHTYPE" speedFactor="1.15" vaporized=""/>
    <tripinfo id="bottom2C0-E1right1.0" depart="24.00" departLane="bottom2C0_0" departPos="5.10" departSpeed="0.00" departDelay="24.00" arrival="130.00" arrivalLane="E1right1_0" arrivalPos="239.60" arrivalSpeed="12.96" duration="106.00" routeLength="1233.13" waitingTime="0.00" waitingCount="0" stopTime="0.00" timeLoss="13.59" rerouteNo="0" devices="tripinfo_bottom2C0-E1right1.0" vType="DEFAULT_VEHTYPE" speedFactor="0.97" vaporized=""/>
    <tripinfo id="left2A2-B4top1.0" depart="9.00" departLane="left2A2_0" departPos="5.10" departSpeed="0.00" departDelay="9.00" arrival="131.00" arrivalLane="B4top1_0" arrivalPos="239.60" arrivalSpeed="13.37" duration="122.00" routeLength="1243.45" waitingTime="14.00" waitingCount="1" stopTime="0.00" timeLoss="28.05" rerouteNo="0" devices="tripinfo_left2A2-B4top1.0" vType="DEFAULT_VEHTYPE" speedFactor="0.97" vaporized=""/>
    <tripinfo id="left4A4-A0bottom0.0" depart="0.00" departLane="left4A4_0" departPos="5.10" departSpeed="0.00" departDelay="0.00" arrival="131.00" arrivalLane="A0bottom0_0" arrivalPos="239.60" arrivalSpeed="12.82" duration="131.00" routeLength="1483.13" waitingTime="9.00" waitingCount="1" stopTime="0.00" timeLoss="23.80" rerouteNo="0" devices="tripinfo_left4A4-A0bottom0.0" vType="DEFAULT_VEHTYPE" speedFactor="1.01" vaporized=""/>
    <tripinfo id="top3D4-A4left4.0" depart="12.00" departLane="top3D4_0" departPos="5.10" departSpeed="0.00" departDelay="12.00" arrival="131.00" arrivalLane="A4left4_0" arrivalPos="239.60" arrivalSpeed="14.20" duration="119.00" routeLength="1233.13" waitingTime="7.00" waitingCount="2" stopTime="0.00" timeLoss="32.85" rerouteNo="0" devices="tripinfo_top3D4-A4left4.0" vType="DEFAULT_VEHTYPE" speedFactor="1.04" vaporized=""/>
    <tripinfo id="bottom1B0-B4top1.0" depart="18.00" departLane="bottom1B0_0" departPos="5.10" departSpeed="0.00" departDelay="18.00" arrival="132.00" arrivalLane="B4top1_1" arrivalPos="239.60" arrivalSpeed="15.76" duration="114.00" routeLength="1494.90" waitingTime="0.00" waitingCount="0" stopTime="0.00" timeLoss="20.24" rerouteNo="0" devices="tripinfo_bottom1B0-B4top1.0" vType="DEFAULT_VEHTYPE" speedFactor="1.16" vaporized=""/>
    <tripinfo id="bottom3D0-A1left1.0" depart="3.00" departLane="bottom3D0_0" departPos="5.10" departSpeed="0.00" departDelay="3.00" arrival="133.00" arrivalLane="A1left1_1" arrivalPos="239.60" arrivalSpeed="13.91" duration="130.00" routeLength="1493.46" waitingTime="6.00" waitingCount="2" stopTime="0.00" timeLoss="30.66" rerouteNo="0" devices="tripinfo_bottom3D0-A1left1.0" vType="DEFAULT_VEHTYPE" speedFactor="1.09" vaporized=""/>
    <tripinfo id="right2E2-E4top4.0" depart="39.00" departLane="right2E2_0" departPos="5.10" departSpeed="0.00" departDelay="39.00" arrival="133.00" arrivalLane="E4top4_0" arrivalPos="239.60" arrivalSpeed="14.96" duration="94.00" routeLength="983.13" waitingTime="11.00" waitingCount="2" stopTime="0.00" timeLoss="27.73" rerouteNo="0" devices="tripinfo_right2E2-E4top4.0" vType="DEFAULT_VEHTYPE" speedFactor="1.08" vaporized=""/>
    <tripinfo id="bottom2C0-C4top2.0" depart="18.00" departLane="bottom2C0_0" departPos="5.10" departSpeed="0.00" departDelay="18.00" arrival="135.00" arrivalLane="C4top2_0" arrivalPos="239.60" arrivalSpeed="12.62" duration="117.00" routeLength="1494.90" waitingTime="0.00" waitingCount="0" stopTime="0.00" timeLoss="8.01" rerouteNo="0" devices="tripinfo_bottom2C0-C4top2.0" vType="DEFAULT_VEHTYPE" speedFactor="0.99" vaporized=""/>
    <tripinfo id="left0A0-A4top0.0" depart="3.00" departLane="left0A0_0" departPos="5.10" departSpeed="0.00" departDelay="3.00" arrival="135.00" arrivalLane="A4top0_0" arrivalPos="239.60" arrivalSpeed="13.44" duration="132.00" routeLength="1493.45" waitingTime="6.00" waitingCount="1" stopTime="0.00" timeLoss="20.20" rerouteNo="0" devices="tripinfo_left0A0-A4top0.0" vType="DEFAULT_VEHTYPE" speedFactor="0.97" vaporized=""/>
    <tripinfo id="top1B4-A0left0.0" depart="3.00" departLane="top1B4_0" departPos="5.10" departSpeed="0.00" departDelay="3.00" arrival="135.00" arrivalLane="A0left0_0" arrivalPos="239.60" arrivalSpeed="15.64" duration="132.00" routeLength="1733.13" waitingTime="0.00" waitingCount="0" stopTime="0.00" timeLoss="21.32" rerouteNo="0" devices="tripinfo_top1B4-A0left0.0" vType="DEFAULT_VEHTYPE" speedFactor="1.14" vaporized=""/>
    <tripinfo id="top1B4-A1left1.0" depart="6.00" departLane="top1B4_0" departPos="5.10" departSpeed="0.00" departDelay="6.00" arrival="136.00" arrivalLane="A1left1_0" arrivalPos="239.60" arrivalSpeed="13.03" duration="130.00" routeLength="1483.13" waitingTime="3.00" waitingCount="1" stopTime="0.00" timeLoss="18.86" rerouteNo="0" devices="tripinfo_top1B4-A1left1.0" vType="DEFAULT_VEHTYPE" speedFactor="0.97" vaporized=""/>
    <tripinfo id="top0A4-B0bottom1.0" depart="15.00" departLane="top0A4_0" departPos="5.10" departSpeed="0.00" departDelay="15.00" arrival="137.00" arrivalLane="B0bottom1_0" arrivalPos="239.60" arrivalSpeed="14.70" duration="122.00" routeLength="1731.69" waitingTime="0.00" waitingCount="0" stopTime="0.00" timeLoss="11.88" rerouteNo="0" devices="tripinfo_top0A4-B0bottom1.0" vType="DEFAULT_VEHTYPE" speedFactor="1.15" vaporized=""/>
    <tripinfo id="right1E1-E0bottom4.0" depart="39.00" departLane="right1E1_0" departPos="5.10" departSpeed="0.00" departDelay="39.00" arrival="138.00" arrivalLane="E0bottom4_0" arrivalPos="239.60" arrivalSpeed="12.06" duration="99.00" routeLength="743.45" waitingTime="18.00" waitingCount="3" stopTime="0.00" timeLoss="38.35" rerouteNo="0" devices="tripinfo_right1E1-E0bottom4.0" vType="DEFAULT_VEHTYPE" speedFactor="0.90" vaporized=""/>
    <tripinfo id="bottom3D0-E2right2.0" depart="33.00" departLane="bottom3D0_0" departPos="5.10" departSpeed="0.00" departDelay="33.00" arrival="139.00" arrivalLane="E2right2_0" arrivalPos="239.60" arrivalSpeed="14.07" duration="106.00" routeLength="1233.13" waitingTime="1.00" waitingCount="1" stopTime="0.00" timeLoss="18.04" rerouteNo="0" devices="tripinfo_bottom3D0-E2right2.0" vType="DEFAULT_VEHTYPE" speedFactor="1.02" vaporized=""/>
    <tripinfo id="left1A1-B4top1.0" depart="9.00" departLane="left1A1_0" departPos="5.10" departSpeed="0.00" departDelay="9.00" arrival="139.00" arrivalLane="B4top1_0" arrivalPos="239.60" arrivalSpeed="13.01" duration="130.00" routeLength="1493.45" waitingTime="8.00" waitingCount="1" stopTime="0.00" timeLoss="22.38" rerouteNo="0" devices="tripinfo_left1A1-B4top1.0" vType="DEFAULT_VEHTYPE" speedFactor="1.01" vaporized=""/>
    <tripinfo id="left2A2-C0bottom2.0" depart="12.00" departLane="left2A2_0" departPos="5.10" departSpeed="0.00" departDelay="12.00" arrival="140.00" arrivalLane="C0bottom2_0" arrivalPos="239.60" arrivalSpeed="12.74" duration="128.00" routeLength="1483.13" waitingTime="0.00" waitingCount="0" stopTime="0.00" timeLoss="15.13" rerouteNo="0" devices="tripinfo_left2A2-C0bottom2.0" vType="DEFAULT_VEHTYPE" speedFactor="0.95" vaporized=""/>
    <tripinfo id="right0E0-A0left0.0" depart="3.00" departLane="right0E0_0" departPos="5.10" departSpeed="0.00" departDelay="3.00" arrival="141.00" arrivalLane="A0left0_0" arrivalPos="239.60" arrivalSpeed="15.25" duration="138.00" routeLength="1494.90" waitingTime="19.00" waitingCount="1" stopTime="0.00" timeLoss="43.14" rerouteNo="0" devices="tripinfo_right0E0-A0left0.0" vType="DEFAULT_VEHTYPE" speedFactor="1.14" vaporized=""/>
    <tripinfo id="right4E4-D4top3.0" depart="36.00" departLane="right4E4_0" departPos="5.10" departSpeed="0.00" departDelay="36.00" arrival="141.00" arrivalLane="D4top3_0" arrivalPos="239.60" arrivalSpeed="14.11" duration="105.00" routeLength="733.13" waitingTime="19.00" waitingCount="3" stopTime="0.00" timeLoss="55.78" rerouteNo="0" devices="tripinfo_right4E4-D4top3.0" vType="DEFAULT_VEHTYPE" speedFactor="1.10" vaporized=""/>
    <tripinfo id="bottom1B0-E0right0.0" depart="27.00" departLane="bottom1B0_0" departPos="5.10" departSpeed="0.00" departDelay="27.00" arrival="142.00" arrivalLane="E0right0_0" arrivalPos="239.60" arrivalSpeed="12.32" duration="115.00" routeLength="1233.13" waitingTime="4.00" waitingCount="1" stopTime="0.00" timeLoss="22.15" rerouteNo="0" devices="tripinfo_bottom1B0-E0right0.0" vType="DEFAULT_VEHTYPE" speedFactor="0.98" vaporized=""/>
    <tripinfo id="right3E3-E4top4.0" depart="39.00" departLane="right3E3_0" departPos="5.10" departSpeed="0.00" departDelay="39.00" arrival="142.00" arrivalLane="E4top4_0" arrivalPos="239.60" arrivalSpeed="12.93" duration="103.00" routeLength="733.13" waitingTime="29.00" waitingCount="2" stopTime="0.00" timeLoss="46.63" rerouteNo="0" devices="tripinfo_right3E3-E4top4.0" vType="DEFAULT_VEHTYPE" speedFactor="0.95" vaporized=""/>