<?xml version="1.0" encoding="UTF-8"?>

<!-- generated on Wed Jun 23 15:50:32 2021 by Eclipse SUMO sumo Version 1.7.0
<configuration xmlns:xsi="http://www.w3.org/2001/XMLSchema-instance" xsi:noNamespaceSchemaLocation="http://sumo.dlr.de/xsd/sumoConfiguration.xsd">

    <input>
        <net-file value="meta.net.xml"/>
        <route-files value="routes/meta_stops28727442784419459.rou.xml"/>
        <additional-files value="meta_parking-areas.xml"/>
    </input>

    <output>
        <tripinfo-output value="trips/tripinfo28727442784419459.xml"/>
    </output>

    <traci_server>
        <remote-port value="52221"/>
    </traci_server>

</configuration>
-->

<tripinfos xmlns:xsi="http://www.w3.org/2001/XMLSchema-instance" xsi:noNamespaceSchemaLocation="http://sumo.dlr.de/xsd/tripinfo_file.xsd">
    <tripinfo id="left0A0-A0bottom0.0" depart="0.00" departLane="left0A0_0" departPos="5.10" departSpeed="0.00" departDelay="0.00" arrival="42.00" arrivalLane="A0bottom0_0" arrivalPos="239.60" arrivalSpeed="13.24" duration="42.00" routeLength="483.13" waitingTime="0.00" waitingCount="0" stopTime="0.00" timeLoss="6.78" rerouteNo="0" devices="tripinfo_left0A0-A0bottom0.0" vType="DEFAULT_VEHTYPE" speedFactor="1.02" vaporized=""/>
    <tripinfo id="top0A4-A4left4.0" depart="12.00" departLane="top0A4_0" departPos="5.10" departSpeed="0.00" departDelay="12.00" arrival="54.00" arrivalLane="A4left4_0" arrivalPos="239.60" arrivalSpeed="13.64" duration="42.00" routeLength="483.13" waitingTime="0.00" waitingCount="0" stopTime="0.00" timeLoss="6.25" rerouteNo="0" devices="tripinfo_top0A4-A4left4.0" vType="DEFAULT_VEHTYPE" speedFactor="1.00" vaporized=""/>
    <tripinfo id="left4A4-A4top0.0" depart="3.00" departLane="left4A4_0" departPos="5.10" departSpeed="0.00" departDelay="3.00" arrival="57.00" arrivalLane="A4top0_1" arrivalPos="239.60" arrivalSpeed="13.77" duration="54.00" routeLength="493.45" waitingTime="10.00" waitingCount="1" stopTime="0.00" timeLoss="18.98" rerouteNo="0" devices="tripinfo_left4A4-A4top0.0" vType="DEFAULT_VEHTYPE" speedFactor="1.03" vaporized=""/>
    <tripinfo id="left1A1-A0bottom0.0" depart="0.00" departLane="left1A1_0" departPos="5.10" departSpeed="0.00" departDelay="0.00" arrival="63.00" arrivalLane="A0bottom0_0" arrivalPos="239.60" arrivalSpeed="12.40" duration="63.00" routeLength="733.13" waitingTime="0.00" waitingCount="0" stopTime="0.00" timeLoss="8.36" rerouteNo="0" devices="tripinfo_left1A1-A0bottom0.0" vType="DEFAULT_VEHTYPE" speedFactor="0.98" vaporized=""/>
    <tripinfo id="bottom4E0-E0right0.0" depart="24.00" departLane="bottom4E0_0" departPos="5.10" departSpeed="0.00" departDelay="24.00" arrival="69.00" arrivalLane="E0right0_0" arrivalPos="239.60" arrivalSpeed="12.21" duration="45.00" routeLength="483.13" waitingTime="0.00" waitingCount="0" stopTime="0.00" timeLoss="6.76" rerouteNo="0" devices="tripinfo_bottom4E0-E0right0.0" vType="DEFAULT_VEHTYPE" speedFactor="0.94" vaporized=""/>
    <tripinfo id="left3A3-A4top0.0" depart="3.00" departLane="left3A3_0" departPos="5.10" departSpeed="0.00" departDelay="3.00" arrival="70.00" arrivalLane="A4top0_0" arrivalPos="239.60" arrivalSpeed="12.56" duration="67.00" routeLength="743.45" waitingTime="0.00" waitingCount="0" stopTime="0.00" timeLoss="7.61" rerouteNo="0" devices="tripinfo_left3A3-A4top0.0" vType="DEFAULT_VEHTYPE" speedFactor="0.92" vaporized=""/>
    <tripinfo id="bottom0A0-A2left2.0" depart="0.00" departLane="bottom0A0_0" departPos="5.10" departSpeed="0.00" departDelay="0.00" arrival="74.00" arrivalLane="A2left2_1" arrivalPos="239.60" arrivalSpeed="14.48" duration="74.00" routeLength="993.46" waitingTime="0.00" waitingCount="0" stopTime="0.00" timeLoss="5.86" rerouteNo="0" devices="tripinfo_bottom0A0-A2left2.0" vType="DEFAULT_VEHTYPE" speedFactor="1.06" vaporized=""/>
    <tripinfo id="top0A4-A3left3.0" depart="9.00" departLane="top0A4_0" departPos="5.10" departSpeed="0.00" departDelay="9.00" arrival="75.00" arrivalLane="A3left3_0" arrivalPos="239.60" arrivalSpeed="12.15" duration="66.00" routeLength="733.13" waitingTime="0.00" waitingCount="0" stopTime="0.00" timeLoss="7.10" rerouteNo="0" devices="tripinfo_top0A4-A3left3.0" vType="DEFAULT_VEHTYPE" speedFactor="0.91" vaporized=""/>
    <tripinfo id="left2A2-A0bottom0.0" depart="0.00" departLane="left2A2_0" departPos="5.10" departSpeed="0.00" departDelay="0.00" arrival="76.00" arrivalLane="A0bottom0_0" arrivalPos="239.60" arrivalSpeed="14.66" duration="76.00" routeLength="983.13" waitingTime="0.00" waitingCount="0" stopTime="0.00" timeLoss="10.33" rerouteNo="0" devices="tripinfo_left2A2-A0bottom0.0" vType="DEFAULT_VEHTYPE" speedFactor="1.10" vaporized=""/>
    <tripinfo id="bottom1B0-A0left0.0" depart="0.00" departLane="bottom1B0_0" departPos="5.10" departSpeed="0.00" departDelay="0.00" arrival="79.00" arrivalLane="A0left0_0" arrivalPos="239.60" arrivalSpeed="14.80" duration="79.00" routeLength="743.46" waitingTime="17.00" waitingCount="1" stopTime="0.00" timeLoss="30.79" rerouteNo="0" devices="tripinfo_bottom1B0-A0left0.0" vType="DEFAULT_VEHTYPE" speedFactor="1.12" vaporized=""/>
    <tripinfo id="left2A2-A4top0.0" depart="3.00" departLane="left2A2_0" departPos="5.10" departSpeed="0.00" departDelay="3.00" arrival="80.00" arrivalLane="A4top0_0" arrivalPos="239.60" arrivalSpeed="14.25" duration="77.00" routeLength="993.45" waitingTime="0.00" waitingCount="0" stopTime="0.00" timeLoss="8.68" rerouteNo="0" devices="tripinfo_left2A2-A4top0.0" vType="DEFAULT_VEHTYPE" speedFactor="1.07" vaporized=""/>
    <tripinfo id="top0A4-A2left2.0" depart="6.00" departLane="top0A4_0" departPos="5.10" departSpeed="0.00" departDelay="6.00" arrival="82.00" arrivalLane="A2left2_0" arrivalPos="239.60" arrivalSpeed="14.12" duration="76.00" routeLength="983.13" waitingTime="0.00" waitingCount="0" stopTime="0.00" timeLoss="8.61" rerouteNo="0" devices="tripinfo_top0A4-A2left2.0" vType="DEFAULT_VEHTYPE" speedFactor="1.07" vaporized=""/>
    <tripinfo id="bottom2C0-A0left0.0" depart="0.00" departLane="bottom2C0_0" departPos="5.10" departSpeed="0.00" departDelay="0.00" arrival="83.00" arrivalLane="A0left0_0" arrivalPos="239.60" arrivalSpeed="15.27" duration="83.00" routeLength="993.46" waitingTime="3.00" waitingCount="1" stopTime="0.00" timeLoss="18.61" rerouteNo="0" devices="tripinfo_bottom2C0-A0left0.0" vType="DEFAULT_VEHTYPE" speedFactor="1.13" vaporized=""/>
    <tripinfo id="left1A1-B0bottom1.0" depart="6.00" departLane="left1A1_0" departPos="5.10" departSpeed="0.00" departDelay="6.00" arrival="84.00" arrivalLane="B0bottom1_0" arrivalPos="239.60" arrivalSpeed="13.70" duration="78.00" routeLength="983.13" waitingTime="0.00" waitingCount="0" stopTime="0.00" timeLoss="8.73" rerouteNo="0" devices="tripinfo_left1A1-B0bottom1.0" vType="DEFAULT_VEHTYPE" speedFactor="1.04" vaporized=""/>
    <tripinfo id="top1B4-A4left4.0" depart="15.00" departLane="top1B4_0" departPos="5.10" departSpeed="0.00" departDelay="15.00" arrival="88.00" arrivalLane="A4left4_0" arrivalPos="239.60" arrivalSpeed="12.31" duration="73.00" routeLength="733.13" waitingTime="3.00" waitingCount="1" stopTime="0.00" timeLoss="16.18" rerouteNo="0" devices="tripinfo_top1B4-A4left4.0" vType="DEFAULT_VEHTYPE" speedFactor="0.96" vaporized=""/>
    <tripinfo id="left3A3-A0bottom0.0" depart="0.00" departLane="left3A3_0" departPos="5.10" departSpeed="0.00" departDelay="0.00" arrival="92.00" arrivalLane="A0bottom0_0" arrivalPos="239.60" arrivalSpeed="15.08" duration="92.00" routeLength="1233.13" waitingTime="0.00" waitingCount="0" stopTime="0.00" timeLoss="9.57" rerouteNo="0" devices="tripinfo_left3A3-A0bottom0.0" vType="DEFAULT_VEHTYPE" speedFactor="1.10" vaporized=""/>
    <tripinfo id="right0E0-E0bottom4.0" depart="36.00" departLane="right0E0_0" departPos="5.10" departSpeed="0.00" departDelay="36.00" arrival="94.00" arrivalLane="E0bottom4_1" arrivalPos="239.60" arrivalSpeed="16.09" duration="58.00" routeLength="493.45" waitingTime="8.00" waitingCount="1" stopTime="0.00" timeLoss="27.38" rerouteNo="0" devices="tripinfo_right0E0-E0bottom4.0" vType="DEFAULT_VEHTYPE" speedFactor="1.18" vaporized=""/>
    <tripinfo id="top4E4-E4right4.0" depart="39.00" departLane="top4E4_0" departPos="5.10" departSpeed="0.00" departDelay="39.00" arrival="94.00" arrivalLane="E4right4_0" arrivalPos="239.60" arrivalSpeed="9.46" duration="55.00" routeLength="493.46" waitingTime="0.00" waitingCount="0" stopTime="0.00" timeLoss="6.56" rerouteNo="0" devices="tripinfo_top4E4-E4right4.0" vType="DEFAULT_VEHTYPE" speedFactor="0.76" vaporized=""/>
    <tripinfo id="bottom4E0-E1right1.0" depart="27.00" departLane="bottom4E0_0" departPos="5.10" departSpeed="0.00" departDelay="27.00" arrival="96.00" arrivalLane="E1right1_0" arrivalPos="239.60" arrivalSpeed="11.27" duration="69.00" routeLength="733.13" waitingTime="0.00" waitingCount="0" stopTime="0.00" timeLoss="7.89" rerouteNo="0" devices="tripinfo_bottom4E0-E1right1.0" vType="DEFAULT_VEHTYPE" speedFactor="0.88" vaporized=""/>
    <tripinfo id="top4E4-E3right3.0" depart="36.00" departLane="top4E4_0" departPos="5.10" departSpeed="0.00" departDelay="36.00" arrival="97.00" arrivalLane="E3right3_1" arrivalPos="239.60" arrivalSpeed="13.10" duration="61.00" routeLength="743.46" waitingTime="0.00" waitingCount="0" stopTime="0.00" timeLoss="7.50" rerouteNo="0" devices="tripinfo_top4E4-E3right3.0" vType="DEFAULT_VEHTYPE" speedFactor="1.02" vaporized=""/>
    <tripinfo id="bottom3D0-E0right0.0" depart="27.00" departLane="bottom3D0_0" departPos="5.10" departSpeed="0.00" departDelay="27.00" arrival="99.00" arrivalLane="E0right0_0" arrivalPos="239.60" arrivalSpeed="10.71" duration="72.00" routeLength="733.13" waitingTime="0.00" waitingCount="0" stopTime="0.00" timeLoss="9.23" rerouteNo="0" devices="tripinfo_bottom3D0-E0right0.0" vType="DEFAULT_VEHTYPE" speedFactor="0.85" vaporized=""/>
    <tripinfo id="top3D4-E4right4.0" depart="36.00" departLane="top3D4_0" departPos="5.10" departSpeed="0.00" departDelay="36.00" arrival="101.00" arrivalLane="E4right4_0" arrivalPos="239.60" arrivalSpeed="13.34" duration="65.00" routeLength="743.46" waitingTime="0.00" waitingCount="0" stopTime="0.00" timeLoss="8.85" rerouteNo="0" devices="tripinfo_top3D4-E4right4.0" vType="DEFAULT_VEHTYPE" speedFactor="0.97" vaporized=""/>
    <tripinfo id="left1A1-A4top0.0" depart="3.00" departLane="left1A1_0" departPos="5.10" departSpeed="0.00" departDelay="3.00" arrival="102.00" arrivalLane="A4top0_0" arrivalPos="239.60" arrivalSpeed="12.87" duration="99.00" routeLength="1243.45" waitingTime="0.00" waitingCount="0" stopTime="0.00" timeLoss="8.80" rerouteNo="0" devices="tripinfo_left1A1-A4top0.0" vType="DEFAULT_VEHTYPE" speedFactor="1.00" vaporized=""/>
    <tripinfo id="bottom1B0-A1left1.0" depart="3.00" departLane="bottom1B0_0" departPos="5.10" departSpeed="0.00" departDelay="3.00" arrival="104.00" arrivalLane="A1left1_0" arrivalPos="239.60" arrivalSpeed="13.40" duration="101.00" routeLength="993.46" waitingTime="13.00" waitingCount="1" stopTime="0.00" timeLoss="27.54" rerouteNo="0" devices="tripinfo_bottom1B0-A1left1.0" vType="DEFAULT_VEHTYPE" speedFactor="0.99" vaporized=""/>
    <tripinfo id="left0A0-B0bottom1.0" depart="6.00" departLane="left0A0_0" departPos="5.10" departSpeed="0.00" departDelay="6.00" arrival="104.00" arrivalLane="B0bottom1_0" arrivalPos="239.60" arrivalSpeed="12.22" duration="98.00" routeLength="733.13" waitingTime="26.00" waitingCount="1" stopTime="0.00" timeLoss="40.70" rerouteNo="0" devices="tripinfo_left0A0-B0bottom1.0" vType="DEFAULT_VEHTYPE" speedFactor="0.94" vaporized=""/>
    <tripinfo id="right4E4-E4top4.0" depart="42.00" departLane="right4E4_0" departPos="5.10" departSpeed="0.00" departDelay="42.00" arrival="107.00" arrivalLane="E4top4_0" arrivalPos="239.60" arrivalSpeed="14.94" duration="65.00" routeLength="483.13" waitingTime="6.00" waitingCount="1" stopTime="0.00" timeLoss="31.17" rerouteNo="0" devices="tripinfo_right4E4-E4top4.0" vType="DEFAULT_VEHTYPE" speedFactor="1.09" vaporized=""/>
    <tripinfo id="bottom0A0-A3left3.0" depart="2.00" departLane="bottom0A0_0" departPos="5.10" departSpeed="0.00" departDelay="2.00" arrival="108.00" arrivalLane="A3left3_1" arrivalPos="239.60" arrivalSpeed="12.30" duration="106.00" routeLength="1243.46" waitingTime="0.00" waitingCount="0" stopTime="0.00" timeLoss="9.69" rerouteNo="0" devices="tripinfo_bottom0A0-A3left3.0" vType="DEFAULT_VEHTYPE" speedFactor="0.94" vaporized=""/>
    <tripinfo id="top2C4-E4right4.0" depart="36.00" departLane="top2C4_0" departPos="5.10" departSpeed="0.00" departDelay="36.00" arrival="108.00" arrivalLane="E4right4_1" arrivalPos="239.60" arrivalSpeed="17.85" duration="72.00" routeLength="993.46" waitingTime="0.00" waitingCount="0" stopTime="0.00" timeLoss="16.14" rerouteNo="0" devices="tripinfo_top2C4-E4right4.0" vType="DEFAULT_VEHTYPE" speedFactor="1.30" vaporized=""/>
    <tripinfo id="left3A3-B0bottom1.0" depart="6.00" departLane="left3A3_0" departPos="5.10" departSpeed="0.00" departDelay="6.00" arrival="109.00" arrivalLane="B0bottom1_1" arrivalPos="239.60" arrivalSpeed="15.14" duration="103.00" routeLength="1483.13" waitingTime="0.00" waitingCount="0" stopTime="0.00" timeLoss="11.63" rerouteNo="0" devices="tripinfo_left3A3-B0bottom1.0" vType="DEFAULT_VEHTYPE" speedFactor="1.18" vaporized=""/>
    <tripinfo id="left4A4-B4top1.0" depart="9.00" departLane="left4A4_0" departPos="5.10" departSpeed="0.00" departDelay="9.00" arrival="109.00" arrivalLane="B4top1_1" arrivalPos="239.60" arrivalSpeed="12.37" duration="100.00" routeLength="743.45" waitingTime="29.00" waitingCount="2" stopTime="0.00" timeLoss="43.53" rerouteNo="0" devices="tripinfo_left4A4-B4top1.0" vType="DEFAULT_VEHTYPE" speedFactor="0.96" vaporized=""/>
    <tripinfo id="top3D4-E3right3.0" depart="33.00" departLane="top3D4_0" departPos="5.10" departSpeed="0.00" departDelay="33.00" arrival="109.00" arrivalLane="E3right3_0" arrivalPos="239.60" arrivalSpeed="17.35" duration="76.00" routeLength="993.46" waitingTime="2.00" waitingCount="1" stopTime="0.00" timeLoss="18.11" rerouteNo="0" devices="tripinfo_top3D4-E3right3.0" vType="DEFAULT_VEHTYPE" speedFactor="1.26" vaporized=""/>
    <tripinfo id="bottom3D0-E1right1.0" depart="30.00" departLane="bottom3D0_0" departPos="5.10" departSpeed="0.00" departDelay="30.00" arrival="110.00" arrivalLane="E1right1_0" arrivalPos="239.60" arrivalSpeed="15.51" duration="80.00" routeLength="983.13" waitingTime="0.00" waitingCount="0" stopTime="0.00" timeLoss="17.56" rerouteNo="0" devices="tripinfo_bottom3D0-E1right1.0" vType="DEFAULT_VEHTYPE" speedFactor="1.17" vaporized=""/>
    <tripinfo id="left2A2-B0bottom1.0" depart="6.00" departLane="left2A2_0" departPos="5.10" departSpeed="0.00" departDelay="6.00" arrival="112.00" arrivalLane="B0bottom1_0" arrivalPos="239.60" arrivalSpeed="12.62" duration="106.00" routeLength="1233.13" waitingTime="0.00" waitingCount="0" stopTime="0.00" timeLoss="11.52" rerouteNo="0" devices="tripinfo_left2A2-B0bottom1.0" vType="DEFAULT_VEHTYPE" speedFactor="0.96" vaporized=""/>
    <tripinfo id="top2C4-A4left4.0" depart="15.00" departLane="top2C4_0" departPos="5.10" departSpeed="0.00" departDelay="15.00" arrival="113.00" arrivalLane="A4left4_0" arrivalPos="239.60" arrivalSpeed="12.78" duration="98.00" routeLength="983.13" waitingTime="5.00" waitingCount="1" stopTime="0.00" timeLoss="20.22" rerouteNo="0" devices="tripinfo_top2C4-A4left4.0" vType="DEFAULT_VEHTYPE" speedFactor="0.93" vaporized=""/>
    <tripinfo id="top0A4-A0left0.0" depart="3.00" departLane="top0A4_0" departPos="5.10" departSpeed="0.00" departDelay="3.00" arrival="114.00" arrivalLane="A0left0_0" arrivalPos="239.60" arrivalSpeed="14.61" duration="111.00" routeLength="1483.13" waitingTime="0.00" waitingCount="0" stopTime="0.00" timeLoss="10.32" rerouteNo="0" devices="tripinfo_top0A4-A0left0.0" vType="DEFAULT_VEHTYPE" speedFactor="1.07" vaporized=""/>
    <tripinfo id="bottom0A0-A4top0.0" depart="9.00" departLane="bottom0A0_0" departPos="5.10" departSpeed="0.00" departDelay="9.00" arrival="117.00" arrivalLane="A4top0_0" arrivalPos="239.60" arrivalSpeed="14.48" duration="108.00" routeLength="1494.90" waitingTime="0.00" waitingCount="0" stopTime="0.00" timeLoss="8.36" rerouteNo="0" devices="tripinfo_bottom0A0-A4top0.0" vType="DEFAULT_VEHTYPE" speedFactor="1.08" vaporized=""/>
    <tripinfo id="bottom4E0-E2right2.0" depart="30.00" departLane="bottom4E0_0" departPos="5.10" departSpeed="0.00" departDelay="30.00" arrival="120.00" arrivalLane="E2right2_0" arrivalPos="239.60" arrivalSpeed="11.85" duration="90.00" routeLength="983.13" waitingTime="0.00" waitingCount="0" stopTime="0.00" timeLoss="11.06" rerouteNo="0" devices="tripinfo_bottom4E0-E2right2.0" vType="DEFAULT_VEHTYPE" speedFactor="0.91" vaporized=""/>
    <tripinfo id="top0A4-A0bottom0.0" depart="0.00" departLane="top0A4_0" departPos="5.10" departSpeed="0.00" departDelay="0.00" arrival="120.00" arrivalLane="A0bottom0_0" arrivalPos="239.60" arrivalSpeed="12.96" duration="120.00" routeLength="1494.90" waitingTime="0.00" waitingCount="0" stopTime="0.00" timeLoss="8.48" rerouteNo="0" devices="tripinfo_top0A4-A0bottom0.0" vType="DEFAULT_VEHTYPE" speedFactor="0.97" vaporized=""/>
    <tripinfo id="top3D4-A4left4.0" depart="12.00" departLane="top3D4_0" departPos="5.10" departSpeed="0.00" departDelay="12.00" arrival="121.00" arrivalLane="A4left4_0" arrivalPos="239.60" arrivalSpeed="13.86" duration="109.00" routeLength="1233.13" waitingTime="0.00" waitingCount="0" stopTime="0.00" timeLoss="22.38" rerouteNo="0" devices="tripinfo_top3D4-A4left4.0" vType="DEFAULT_VEHTYPE" speedFactor="1.04" vaporized=""/>
    <tripinfo id="right0E0-D0bottom3.0" depart="30.00" departLane="right0E0_0" departPos="5.10" departSpeed="0.00" departDelay="30.00" arrival="124.00" arrivalLane="D0bottom3_1" arrivalPos="239.60" arrivalSpeed="14.39" duration="94.00" routeLength="743.45" waitingTime="10.00" waitingCount="2" stopTime="0.00" timeLoss="43.02" rerouteNo="0" devices="tripinfo_right0E0-D0bottom3.0" vType="DEFAULT_VEHTYPE" speedFactor="1.06" vaporized=""/>
    <tripinfo id="bottom1B0-B4top1.0" depart="18.00" departLane="bottom1B0_0" departPos="5.10" departSpeed="0.00" departDelay="18.00" arrival="125.00" arrivalLane="B4top1_1" arrivalPos="239.60" arrivalSpeed="15.73" duration="107.00" routeLength="1494.90" waitingTime="0.00" waitingCount="0" stopTime="0.00" timeLoss="13.84" rerouteNo="0" devices="tripinfo_bottom1B0-B4top1.0" vType="DEFAULT_VEHTYPE" speedFactor="1.16" vaporized=""/>
    <tripinfo id="bottom3D0-A0left0.0" depart="0.00" departLane="bottom3D0_0" departPos="5.10" departSpeed="0.00" departDelay="0.00" arrival="125.00" arrivalLane="A0left0_0" arrivalPos="239.60" arrivalSpeed="12.08" duration="125.00" routeLength="1243.46" waitingTime="11.00" waitingCount="2" stopTime="0.00" timeLoss="30.03" rerouteNo="0" devices="tripinfo_bottom3D0-A0left0.0" vType="DEFAULT_VEHTYPE" speedFactor="0.96" vaporized=""/>
    <tripinfo id="top4E4-E2right2.0" depart="33.00" departLane="top4E4_0" departPos="5.10" departSpeed="0.00" departDelay="33.00" arrival="125.00" arrivalLane="E2right2_1" arrivalPos="239.60" arrivalSpeed="12.38" duration="92.00" routeLength="993.46" waitingTime="0.00" waitingCount="0" stopTime="0.00" timeLoss="15.54" rerouteNo="0" devices="tripinfo_top4E4-E2right2.0" vType="DEFAULT_VEHTYPE" speedFactor="0.95" vaporized=""/>
    <tripinfo id="left0A0-C0bottom2.0" depart="12.00" departLane="left0A0_0" departPos="5.10" departSpeed="0.00" departDelay="12.00" arrival="128.00" arrivalLane="C0bottom2_0" arrivalPos="239.60" arrivalSpeed="12.85" duration="116.00" routeLength="983.13" waitingTime="24.00" waitingCount="1" stopTime="0.00" timeLoss="40.85" rerouteNo="0" devices="tripinfo_left0A0-C0bottom2.0" vType="DEFAULT_VEHTYPE" speedFactor="0.96" vaporized=""/>
    <tripinfo id="left1A1-B4top1.0" depart="9.00" departLane="left1A1_0" departPos="5.10" departSpeed="0.00" departDelay="9.00" arrival="128.00" arrivalLane="B4top1_0" arrivalPos="239.60" arrivalSpeed="13.17" duration="119.00" routeLength="1493.45" waitingTime="0.00" waitingCount="0" stopTime="0.00" timeLoss="11.15" rerouteNo="0" devices="tripinfo_left1A1-B4top1.0" vType="DEFAULT_VEHTYPE" speedFactor="1.01" vaporized=""/>
    <tripinfo id="top4E4-E1right1.0" depart="29.00" departLane="top4E4_0" departPos="5.10" departSpeed="0.00" departDelay="29.00" arrival="128.00" arrivalLane="E1right1_1" arrivalPos="239.60" arrivalSpeed="14.69" duration="99.00" routeLength="1243.46" waitingTime="0.00" waitingCount="0" stopTime="0.00" timeLoss="14.59" rerouteNo="0" devices="tripinfo_top4E4-E1right1.0" vType="DEFAULT_VEHTYPE" speedFactor="1.08" vaporized=""/>
    <tripinfo id="right1E1-E0bottom4.0" depart="39.00" departLane="right1E1_0" departPos="5.10" departSpeed="0.00" departDelay="39.00" arrival="129.00" arrivalLane="E0bottom4_0" arrivalPos="239.60" arrivalSpeed="11.46" duration="90.00" routeLength="743.45" waitingTime="16.00" waitingCount="1" stopTime="0.00" timeLoss="29.46" rerouteNo="0" devices="tripinfo_right1E1-E0bottom4.0" vType="DEFAULT_VEHTYPE" speedFactor="0.90" vaporized=""/>
    <tripinfo id="bottom0A0-A4left4.0" depart="6.00" departLane="bottom0A0_0" departPos="5.10" departSpeed="0.00" departDelay="6.00" arrival="130.00" arrivalLane="A4left4_1" arrivalPos="239.60" arrivalSpeed="13.02" duration="124.00" routeLength="1493.46" waitingTime="0.00" waitingCount="0" stopTime="0.00" timeLoss="16.03" rerouteNo="0" devices="tripinfo_bottom0A0-A4left4.0" vType="DEFAULT_VEHTYPE" speedFactor="1.01" vaporized=""/>
    <tripinfo id="left4A4-A0bottom0.0" depart="0.00" departLane="left4A4_0" departPos="5.10" departSpeed="0.00" departDelay="0.00" arrival="130.00" arrivalLane="A0bottom0_0" arrivalPos="239.60" arrivalSpeed="12.98" duration="130.00" routeLength="1483.13" waitingTime="10.00" waitingCount="1" stopTime="0.00" timeLoss="23.04" rerouteNo="0" devices="tripinfo_left4A4-A0bottom0.0" vType="DEFAULT_VEHTYPE" speedFactor="1.01" vaporized=""/>
    <tripinfo id="top2C4-A3left3.0" depart="12.00" departLane="top2C4_0" departPos="5.10" departSpeed="0.00" departDelay="12.00" arrival="130.00" arrivalLane="A3left3_0" arrivalPos="239.60" arrivalSpeed="14.65" duration="118.00" routeLength="1233.13" waitingTime="17.00" waitingCount="2" stopTime="0.00" timeLoss="37.27" rerouteNo="0" devices="tripinfo_top2C4-A3left3.0" vType="DEFAULT_VEHTYPE" speedFactor="1.11" vaporized=""/>
    <tripinfo id="bottom2C0-E1right1.0" depart="24.00" departLane="bottom2C0_0" departPos="5.10" departSpeed="0.00" departDelay="24.00" arrival="132.00" arrivalLane="E1right1_0" arrivalPos="239.60" arrivalSpeed="12.92" duration="108.00" routeLength="1233.13" waitingTime="0.00" waitingCount="0" stopTime="0.00" timeLoss="15.75" rerouteNo="0" devices="tripinfo_bottom2C0-E1right1.0" vType="DEFAULT_VEHTYPE" speedFactor="0.97" vaporized=""/>
    <tripinfo id="bottom3D0-A1left1.0" depart="3.00" departLane="bottom3D0_0" departPos="5.10" departSpeed="0.00" departDelay="3.00" arrival="132.00" arrivalLane="A1left1_1" arrivalPos="239.60" arrivalSpeed="14.65" duration="129.00" routeLength="1493.46" waitingTime="3.00" waitingCount="1" stopTime="0.00" timeLoss="29.52" rerouteNo="0" devices="tripinfo_bottom3D0-A1left1.0" vType="DEFAULT_VEHTYPE" speedFactor="1.09" vaporized=""/>
    <tripinfo id="bottom2C0-A3left3.0" depart="9.00" departLane="bottom2C0_0" departPos="5.10" departSpeed="0.00" departDelay="9.00" arrival="133.00" arrivalLane="A3left3_0" arrivalPos="239.60" arrivalSpeed="14.84" duration="124.00" routeLength="1743.46" waitingTime="0.00" waitingCount="0" stopTime="0.00" timeLoss="14.35" rerouteNo="0" devices="tripinfo_bottom2C0-A3left3.0" vType="DEFAULT_VEHTYPE" speedFactor="1.15" vaporized=""/>
    <tripinfo id="bottom1B0-E0right0.0" depart="27.00" departLane="bottom1B0_0" departPos="5.10" departSpeed="0.00" departDelay="27.00" arrival="134.00" arrivalLane="E0right0_0" arrivalPos="239.60" arrivalSpeed="12.39" duration="107.00" routeLength="1233.13" waitingTime="0.00" waitingCount="0" stopTime="0.00" timeLoss="14.83" rerouteNo="0" devices="tripinfo_bottom1B0-E0right0.0" vType="DEFAULT_VEHTYPE" speedFactor="0.98" vaporized=""/>
    <tripinfo id="top1B4-A1left1.0" depart="6.00" departLane="top1B4_0" departPos="5.10" departSpeed="0.00" departDelay="6.00" arrival="134.00" arrivalLane="A1left1_0" arrivalPos="239.60" arrivalSpeed="13.31" duration="128.00" routeLength="1483.13" waitingTime="2.00" waitingCount="1" stopTime="0.00" timeLoss="16.75" rerouteNo="0" devices="tripinfo_top1B4-A1left1.0" vType="DEFAULT_VEHTYPE" speedFactor="0.97" vaporized=""/>
    <tripinfo id="bottom2C0-C4top2.0" depart="18.00" departLane="bottom2C0_0" departPos="5.10" departSpeed="0.00" departDelay="18.00" arrival="135.00" arrivalLane="C4top2_0" arrivalPos="239.60" arrivalSpeed="13.62" duration="117.00" routeLength="1494.90" waitingTime="0.00" waitingCount="0" stopTime="0.00" timeLoss="8.12" rerouteNo="0" devices="tripinfo_bottom2C0-C4top2.0" vType="DEFAULT_VEHTYPE" speedFactor="0.99" vaporized=""/>
    <tripinfo id="left0A0-A4top0.0" depart="3.00" departLane="left0A0_0" departPos="5.10" departSpeed="0.00" departDelay="3.00" arrival="135.00" arrivalLane="A4top0_0" arrivalPos="239.60" arrivalSpeed="12.85" duration="132.00" routeLength="1493.45" waitingTime="6.00" waitingCount="1" stopTime="0.00" timeLoss="20.42" rerouteNo="0" devices="tripinfo_left0A0-A4top0.0" vType="DEFAULT_VEHTYPE" speedFactor="0.97" vaporized=""/>
    <tripinfo id="bottom2C0-A1left1.0" depart="3.00" departLane="bottom2C0_0" departPos="5.10" departSpeed="0.00" departDelay="3.00" arrival="138.00" arrivalLane="A1left1_0" arrivalPos="239.60" arrivalSpeed="12.47" duration="135.00" routeLength="1243.46" waitingTime="17.00" waitingCount="2" stopTime="0.00" timeLoss="37.33" rerouteNo="0" devices="tripinfo_bottom2C0-A1left1.0" vType="DEFAULT_VEHTYPE" speedFactor="0.93" vaporized=""/>
    <tripinfo id="left2A2-C0bottom2.0" depart="12.00" departLane="left2A2_0" departPos="5.10" departSpeed="0.00" departDelay="12.00" arrival="139.00" arrivalLane="C0bottom2_0" arrivalPos="239.60" arrivalSpeed="12.00" duration="127.00" routeLength="1483.13" waitingTime="0.00" waitingCount="0" stopTime="0.00" timeLoss="13.84" rerouteNo="0" devices="tripinfo_left2A2-C0bottom2.0" vType="DEFAULT_VEHTYPE" speedFactor="0.95" vaporized=""/>
    <tripinfo id="top3D4-A3left3.0" depart="9.00" departLane="top3D4_0" departPos="5.10" departSpeed="0.00" departDelay="9.00" arrival="139.00" arrivalLane="A3left3_0" arrivalPos="239.60" arrivalSpeed="15.35" duration="130.00" routeLength="1483.13" waitingTime="0.00" waitingCount="0" stopTime="0.00" timeLoss="34.92" rerouteNo="0" devices="tripinfo_top3D4-A3left3.0" vType="DEFAULT_VEHTYPE" speedFactor="1.13" vaporized=""/>
    <tripinfo id="right0E0-A0left0.0" depart="3.00" departLane="right0E0_0" departPos="5.10" departSpeed="0.00" departDelay="3.00" arrival="140.00" arrivalLane="A0left0_0" arrivalPos="239.60" arrivalSpeed="15.25" duration="137.00" routeLength="1494.90" waitingTime="19.00" waitingCount="1" stopTime="0.00" timeLoss="42.25" rerouteNo="0" devices="tripinfo_right0E0-A0left0.0" vType="DEFAULT_VEHTYPE" speedFactor="1.14" vaporized=""/>
    <tripinfo id="right4E4-D4top3.0" depart="36.00" departLane="right4E4_0" departPos="5.10" departSpeed="0.00" departDelay="36.00" arrival="141.00" arrivalLane="D4top3_0" arrivalPos="239.60" arrivalSpeed="14.97" duration="105.00" routeLength="733.13" waitingTime="19.00" waitingCount="3" stopTime="0.00" timeLoss="55.82" rerouteNo="0" devices="tripinfo_right4E4-D4top3.0" vType="DEFAULT_VEHTYPE" speedFactor="1.10" vaporized=""/>
    <tripinfo id="top1B4-A0left0.0" depart="3.00" departLane="top1B4_0" departPos="5.10" departSpeed="0.00" departDelay="3.00" arrival="141.00" arrivalLane="A0left0_1" arrivalPos="239.60" arrivalSpeed="15.49" duration="138.00" routeLength="1733.13" waitingTime="6.00" waitingCount="1" stopTime="0.00" timeLoss="27.17" rerouteNo="0" devices="tripinfo_top1B4-A0left0.0" vType="DEFAULT_VEHTYPE" speedFactor="1.14" vaporized=""/>
    <tripinfo id="top3D4-D0bottom3.0" depart="21.00" departLane="top3D4_0" departPos="5.10" departSpeed="0.00" departDelay="21.00" arrival="142.00" arrivalLane="D0bottom3_0" arrivalPos="239.60" arrivalSpeed="12.23" duration="121.00" routeLength="1494.90" waitingTime="0.00" waitingCount="0" stopTime="0.00" timeLoss="8.58" rerouteNo="0" devices="tripinfo_top3D4-D0bottom3.0" vType="DEFAULT_VEHTYPE" speedFactor="0.96" vaporized=""/>
    <tripinfo id="bottom3D0-E2right2.0" depart="33.00" departLane="bottom3D0_0" departPos="5.10" departSpeed="0.00" departDelay="33.00" arrival="143.00" arrivalLane="E2right2_0" arrivalPos="239.60" arrivalSpeed="12.85" duration="110.00" routeLength="1233.13" waitingTime="3.00" waitingCount="1" stopTime="0.00" timeLoss="21.46" rerouteNo="0" devices="tripinfo_bottom3D0-E2right2.0" vType="DEFAULT_VEHTYPE" speedFactor="1.02" vaporized=""/>
    <tripinfo id="left0A0-D0bottom3.0" depart="18.00" departLane="left0A0_0" departPos="5.10" departSpeed="0.00" departDelay="18.00" arrival="143.00" arrivalLane="D0bottom3_0" arrivalPos="239.60" arrivalSpeed="13.18" duration="125.00" routeLength="1233.13" waitingTime="17.00" waitingCount="1" stopTime="0.00" timeLoss="38.39" rerouteNo="0" devices="tripinfo_left0A0-D0bottom3.0" vType="DEFAULT_VEHTYPE" speedFactor="1.03" vaporized=""/>
    <tripinfo id="bottom4E0-E3right3.0" depart="33.00" departLane="bottom4E0_0" departPos="5.10" departSpeed="0.00" departDelay="33.00" arrival="145.00" arrivalLane="E3right3_0" arrivalPos="239.60" arrivalSpeed="11.62" duration="112.00" routeLength="1233.13" waitingTime="0.00" waitingCount="0" stopTime="0.00" timeLoss="14.07" rerouteNo="0" devices="tripinfo_bottom4E0-E3right3.0" vType="DEFAULT_VEHTYPE" speedFactor="0.91" vaporized=""/>